----- GAMESS execution script 'rungms' -----
This job is running on host chemcompute-node-0.novalocal
under operating system Linux at Sat Nov 13 19:21:15 UTC 2021
SLURM has assigned the following compute nodes to this run:
chemcompute-node-0
Available scratch disk space (Kbyte units) at beginning of the job is
Filesystem     1K-blocks     Used Available Use% Mounted on
/dev/sda1       62903276 16656216  46247060  27% /
GAMESS temporary binary files will be written to /scratch/306109
GAMESS supplementary output files will be written to /data/slurm/342011
Copying input file 342011.inp to your run's scratch directory...
The generated host list is
chemcompute-node-0.novalocal

 Distributed Data Interface kickoff program.
 Initiating 1 compute processes on 1 nodes to run the following command:
 /data/gamess-2019R1-ddi/gamess.00.x 342011 

          ******************************************************
          *         GAMESS VERSION = 30 JUN 2019 (R1)          *
          *             FROM IOWA STATE UNIVERSITY             *
          * M.W.SCHMIDT, K.K.BALDRIDGE, J.A.BOATZ, S.T.ELBERT, *
          *   M.S.GORDON, J.H.JENSEN, S.KOSEKI, N.MATSUNAGA,   *
          *          K.A.NGUYEN, S.J.SU, T.L.WINDUS,           *
          *       TOGETHER WITH M.DUPUIS, J.A.MONTGOMERY       *
          *         J.COMPUT.CHEM.  14, 1347-1363(1993)        *
          **************** 64 BIT LINUX VERSION ****************

  SINCE 1993, STUDENTS AND POSTDOCS WORKING AT IOWA STATE UNIVERSITY
  AND ALSO IN THEIR VARIOUS JOBS AFTER LEAVING ISU HAVE MADE IMPORTANT
  CONTRIBUTIONS TO THE CODE:
     IVANA ADAMOVIC, CHRISTINE AIKENS, YURI ALEXEEV, POOJA ARORA,
     ANDREY ASADCHEV, ROB BELL, PRADIPTA BANDYOPADHYAY, JONATHAN BENTZ,
     COLLEEN BERTONI, BRETT BODE, KURT BRORSEN, CALEB CARLIN, GALINA CHABAN,
     WEI CHEN, CHEOL HO CHOI, PAUL DAY, ALBERT DEFUSCO, NUWAN DESILVA,
     TIM DUDLEY, DMITRI FEDOROV, ALEX FINDLATER, GRAHAM FLETCHER, 
     MARK FREITAG, KURT GLAESEMANN, ANASTASIA GUNINA,
     DAN KEMP, GRANT MERRILL, NORIYUKI MINEZAWA, JONATHAN MULLIN,
     TAKESHI NAGATA, SEAN NEDD, HEATHER NETZLOFF, BOSILJKA NJEGIC, RYAN OLSON,
     MIKE PAK, BUU PHAM,
     SPENCER PRUITT, LUKE ROSKOP, JIM SHOEMAKER, LYUDMILA SLIPCHENKO,
     TONY SMITH, SAROM SOK LEANG, JIE SONG, TETSUYA TAKETSUGU, SIMON WEBB,
     PENG XU, SOOHAENG YOO, FEDERICO ZAHARIEV

  ADDITIONAL CODE HAS BEEN PROVIDED BY COLLABORATORS IN OTHER GROUPS:
     IOWA STATE UNIVERSITY:
          JOE IVANIC, AARON WEST, LAIMUTIS BYTAUTAS, KLAUS RUEDENBERG
     UNIVERSITY OF TOKYO: KIMIHIKO HIRAO, TAKAHITO NAKAJIMA,
          TAKAO TSUNEDA, MUNEAKI KAMIYA, SUSUMU YANAGISAWA,
          KIYOSHI YAGI, MAHITO CHIBA, SEIKEN TOKURA, NAOAKI KAWAKAMI
     UNIVERSITY OF AARHUS: FRANK JENSEN
     UNIVERSITY OF IOWA: VISVALDAS KAIRYS, HUI LI
     NATIONAL INST. OF STANDARDS AND TECHNOLOGY: WALT STEVENS, DAVID GARMER
     UNIVERSITY OF PISA: BENEDETTA MENNUCCI, JACOPO TOMASI
     UNIVERSITY OF MEMPHIS: HENRY KURTZ, PRAKASHAN KORAMBATH
     UNIVERSITY OF ALBERTA: TOBY ZENG, MARIUSZ KLOBUKOWSKI
     UNIVERSITY OF NEW ENGLAND: MARK SPACKMAN
     MIE UNIVERSITY: HIROAKI UMEDA
     NAT. INST. OF ADVANCED INDUSTRIAL SCIENCE AND TECHNOLOGY: KAZUO KITAURA
     MICHIGAN STATE UNIVERSITY:
          KAROL KOWALSKI, MARTA WLOCH, JEFFREY GOUR, JESSE LUTZ,
          WEI LI, JUN SHEN, J. EMILIANO DEUSTUA, PIOTR PIECUCH
     UNIVERSITY OF MINNESOTA:
          YINAN SHU
     UNIVERSITY OF SILESIA: MONIKA MUSIAL, STANISLAW KUCHARSKI
     FACULTES UNIVERSITAIRES NOTRE-DAME DE LA PAIX:
          OLIVIER QUINET, BENOIT CHAMPAGNE
     UNIVERSITY OF CALIFORNIA - SANTA BARBARA: BERNARD KIRTMAN
     INSTITUTE FOR MOLECULAR SCIENCE:
          KAZUYA ISHIMURA, MICHIO KATOUDA, AND SHIGERU NAGASE
     UNIVERSITY OF NOTRE DAME: ANNA POMOGAEVA, DAN CHIPMAN
     KYUSHU UNIVERSITY:
          HARUYUKI NAKANO,
          FENG LONG GU, JACEK KORCHOWIEC, MARCIN MAKOWSKI, AND YURIKO AOKI,
          HIROTOSHI MORI AND EISAKU MIYOSHI
     PENNSYLVANIA STATE UNIVERSITY:
          TZVETELIN IORDANOV, CHET SWALINA, JONATHAN SKONE,
          SHARON HAMMES-SCHIFFER
     WASEDA UNIVERSITY:
          MASATO KOBAYASHI, TOMOKO AKAMA, TSUGUKI TOUMA,
          TAKESHI YOSHIKAWA, YASUHIRO IKABATA, JUNJI SEINO,
          YUYA NAKAJIMA, HIROMI NAKAI
     NANJING UNIVERSITY: SHUHUA LI
     UNIVERSITY OF NEBRASKA:
          PEIFENG SU, DEJUN SI, NANDUN THELLAMUREGE, YALI WANG, HUI LI
     UNIVERSITY OF ZURICH: ROBERTO PEVERATI, KIM BALDRIDGE
     N. COPERNICUS UNIVERSITY AND JACKSON STATE UNIVERSITY:
          MARIA BARYSZ
     UNIVERSITY OF COPENHAGEN: Jimmy Kromann, CASPER STEINMANN
     TOKYO INSTITUTE OF TECHNOLOGY: HIROYA NAKATA
     NAGOYA UNIVERSITY: YOSHIO NISHIMOTO, STEPHAN IRLE
     MOSCOW STATE UNIVERSITY: VLADIMIR MIRONOV
     A.N.NESMEYANOV INSTITUTE OF ORGANOELEMENT COMPOUNDS OF RUSSIAN ACADEMY OF SCIENCES:
          IGOR S. GERASIMOV

 EXECUTION OF GAMESS BEGUN Sat Nov 13 19:21:17 2021

            ECHO OF THE FIRST FEW INPUT CARDS -
 INPUT CARD>!File created by the GAMESS Input Deck Generator Plugin for Avogadro            
 INPUT CARD> $BASIS GBASIS=STO NGAUSS=3 $END                                                
 INPUT CARD> $CONTRL SCFTYP=RHF RUNTYP=SADPOINT NZVAR=1 mult=1  ICHARG=0 $END               
 INPUT CARD> $STATPT hssend=.t. OPTTOL=0.0005 NSTEP=50 $END                                 
 INPUT CARD> $STATPT HESS=calc ihrep=5 $END                                                 
 INPUT CARD> $FORCE nvib=2 $END                                                             
 INPUT CARD> $ZMAT DLC=.t. auto=.t. nonvdw(1)=6,1,4,3,5,4,5,6,1,2,2,3 $END                  
 INPUT CARD>!$ZMAT IFZMAT(1)=1,6,1,1,4,3 fvalue(1)=2.00,2.00 $END                           
 INPUT CARD>                                                                                
 INPUT CARD> $DATA                                                                          
 INPUT CARD>Title                                                                           
 INPUT CARD>C1                                                                              
 INPUT CARD>C     6.0     3.29821706    -2.32875299    -2.03952122                          
 INPUT CARD>C     6.0     2.86802197    -1.00452566    -1.91028821                          
 INPUT CARD>C     6.0     2.89881253    -0.38239971    -0.65757960                          
 INPUT CARD>C     6.0     4.84387350    -0.31892374    -0.19637573                          
 INPUT CARD>C     6.0     5.19508505    -1.66722894    -0.30831727                          
 INPUT CARD>C     6.0     5.24535418    -2.22110963    -1.59559536                          
 INPUT CARD>C     6.0     5.77470684    -1.33028924    -2.68373823                          
 INPUT CARD>C     6.0     5.83260441    -0.02140966    -2.53810191                          
 INPUT CARD>C     6.0     5.35645390     0.64697093    -1.27004659                          
 INPUT CARD>O     8.0     5.37024975     1.86100161    -1.11002386                          
 INPUT CARD>H     1.0     3.30392718    -2.77293921    -3.02936196                          
 INPUT CARD>H     1.0     3.03367567    -3.03615546    -1.26180780                          
 INPUT CARD>H     1.0     2.86955667    -0.37771466    -2.79193568                          
 INPUT CARD>H     1.0     2.61115408     0.66210502    -0.59319359                          
 INPUT CARD>H     1.0     2.59560633    -0.95758265     0.21025199                          
 INPUT CARD>H     1.0     4.79491568     0.12070660     0.79557800                          
 INPUT CARD>H     1.0     5.09529448    -2.31853485     0.55015451                          
 INPUT CARD>H     1.0     5.51966190    -3.26731968    -1.68986130                          
 INPUT CARD>H     1.0     6.10801840    -1.80962741    -3.59752917                          
 INPUT CARD>H     1.0     6.23214245     0.62634498    -3.30744219                          
 INPUT CARD> $END                                                                           
    1000000 WORDS OF MEMORY AVAILABLE

     BASIS OPTIONS
     -------------
     GBASIS=STO          IGAUSS=       3      POLAR=NONE    
     NDFUNC=       0     NFFUNC=       0     DIFFSP=       F
     NPFUNC=       0      DIFFS=       F     BASNAM=        


     RUN TITLE
     ---------
 Title                                                                           

 THE POINT GROUP OF THE MOLECULE IS C1      
 THE ORDER OF THE PRINCIPAL AXIS IS     0

 ATOM      ATOMIC                      COORDINATES (BOHR)
           CHARGE         X                   Y                   Z
 C           6.0     6.2327264914       -4.4007050442       -3.8541362519
 C           6.0     5.4197756501       -1.8982782450       -3.6099212745
 C           6.0     5.4779613715       -0.7226306697       -1.2426452591
 C           6.0     9.1535936342       -0.6026784796       -0.3710963203
 C           6.0     9.8172872274       -3.1506058554       -0.5826351576
 C           6.0     9.9122821088       -4.1972885894       -3.0152380177
 C           6.0    10.9126135870       -2.5138821480       -5.0715298775
 C           6.0    11.0220241297       -0.0404583909       -4.7963171388
 C           6.0    10.1222301369        1.2225977797       -2.4000400467
 O           8.0    10.1483005131        3.5167831056       -2.0976409352
 H           1.0     6.2435170536       -5.2400952875       -5.7246640220
 H           1.0     5.7328157519       -5.7375018755       -2.3844709912
 H           1.0     5.4226758125       -0.7137772089       -5.2759934105
 H           1.0     4.9343657229        1.2511970629       -1.1209733428
 H           1.0     4.9049847357       -1.8095688191        0.3973186495
 H           1.0     9.0610767694        0.2281023989        1.5034244219
 H           1.0     9.6287103940       -4.3813955595        1.0396412748
 H           1.0    10.4306485359       -6.1743389095       -3.1933748143
 H           1.0    11.5424811040       -3.4196999448       -6.7983443641
 H           1.0    11.7770415469        1.1836203860       -6.2501594593

          INTERNUCLEAR DISTANCES (ANGS.)
          ------------------------------

                1 C          2 C          3 C          4 C          5 C     

   1 C       0.0000000    1.3983372 *  2.4202433 *  3.1345897    2.6519407 *
   2 C       1.3983372 *  0.0000000    1.3990238 *  2.7039851 *  2.9018458 *
   3 C       2.4202433 *  1.3990238 *  0.0000000    2.0000001 *  2.6543620 *
   4 C       3.1345897    2.7039851 *  2.0000001 *  0.0000000    1.3977866 *
   5 C       2.6519407 *  2.9018458 *  2.6543620 *  1.3977866 *  0.0000000  
   6 C       2.0000001 *  2.6890178 *  3.1252177    2.3952690 *  1.4022823 *
   7 C       2.7468067 *  3.0254196    3.6434299    2.8418802 *  2.4682209 *
   8 C       3.4634571    3.1858148    3.5034002    2.5592548 *  2.8437812 *
   9 C       3.6991030    3.0544466    2.7339936 *  1.5324687 *  2.5112714 *
  10 O       4.7656404    3.8875202    3.3683167    2.4215490 *  3.6224062  
  11 H       1.0849510 *  2.1376683 *  3.3917766    4.0520905    3.4933018  
  12 H       1.0840842 *  2.1390390 *  2.7250136 *  3.4344301    2.7303470 *
  13 H       2.1345791 *  1.0817563 *  2.1345617 *  3.2616430    3.6385835  
  14 H       3.3925139    2.1397143 *  1.0853032 *  2.4708132 *  3.4905086  
  15 H       2.7267654 *  2.1384819 *  1.0843897 *  2.3723272 *  2.7440484 *
  16 H       4.0345690    3.5072466    2.4413091 *  1.0861141 *  2.1390264 *
  17 H       3.1521440    3.5694735    3.1672976    2.1491776 *  1.0821882 *
  18 H       2.4367984 *  3.4928526    4.0320243    3.3734593    2.1387624 *
  19 H       3.2545144    3.7406614    4.5803149    3.9227675    3.4165245  
  20 H       4.3529468    3.9911258    4.3761200    3.5354714    3.9154463  

                6 C          7 C          8 C          9 C         10 O     

   1 C       2.0000001 *  2.7468067 *  3.4634571    3.6991030    4.7656404  
   2 C       2.6890178 *  3.0254196    3.1858148    3.0544466    3.8875202  
   3 C       3.1252177    3.6434299    3.5034002    2.7339936 *  3.3683167  
   4 C       2.3952690 *  2.8418802 *  2.5592548 *  1.5324687 *  2.4215490 *
   5 C       1.4022823 *  2.4682209 *  2.8437812 *  2.5112714 *  3.6224062  
   6 C       0.0000000    1.5026078 *  2.4641147 *  2.8886348 *  4.1127863  
   7 C       1.5026078 *  0.0000000    1.3182290 *  2.4663774 *  3.5811311  
   8 C       2.4641147 *  1.3182290 *  0.0000000    1.5104358 *  2.4076235 *
   9 C       2.8886348 *  2.4663774 *  1.5104358 *  0.0000000    1.2246094 *
  10 O       4.1127863    3.5811311    2.4076235 *  1.2246094 *  0.0000000  
  11 H       2.4757507 *  2.8819172 *  3.7691458    4.3593396    5.4246618  
  12 H       2.3805957 *  3.5277638    4.3071593    4.3543985    5.4281456  
  13 H       3.2363172    3.0592487    2.9951689 *  3.0904344    3.7542168  
  14 H       4.0319655    4.2834656    3.8246049    2.8275484 *  3.0523885  
  15 H       3.4465561    4.3151790    4.3483360    3.5196811    4.1696752  
  16 H       3.3770857    3.8949995    3.4943407    2.2043331 *  2.6440413 *
  17 H       2.1531958 *  3.4491003    3.9188950    3.4893496    4.5055874  
  18 H       1.0856732 *  2.1920142 *  3.3694773    3.9401208    5.1631594  
  19 H       2.2183882 *  1.0843780 *  2.0966549 *  3.4665400    4.4950531  
  20 H       3.4658575    2.1039656 *  1.0821743 *  2.2177098 *  2.6638099 *

               11 H         12 H         13 H         14 H         15 H     

   1 C       1.0849510 *  1.0840842 *  2.1345791 *  3.3925139    2.7267654 *
   2 C       2.1376683 *  2.1390390 *  1.0817563 *  2.1397143 *  2.1384819 *
   3 C       3.3917766    2.7250136 *  2.1345617 *  1.0853032 *  1.0843897 *
   4 C       4.0520905    3.4344301    3.2616430    2.4708132 *  2.3723272 *
   5 C       3.4933018    2.7303470 *  3.6385835    3.4905086    2.7440484 *
   6 C       2.4757507 *  2.3805957 *  3.2363172    4.0319655    3.4465561  
   7 C       2.8819172 *  3.5277638    3.0592487    4.2834656    4.3151790  
   8 C       3.7691458    4.3071593    2.9951689 *  3.8246049    4.3483360  
   9 C       4.3593396    4.3543985    3.0904344    2.8275484 *  3.5196811  
  10 O       5.4246618    5.4281456    3.7542168    3.0523885    4.1696752  
  11 H       0.0000000    1.8073645 *  2.4458433 *  4.2678308    3.7805207  
  12 H       1.8073645 *  0.0000000    3.0717314    3.7818911    2.5844399 *
  13 H       2.4458433 *  3.0717314    0.0000000    2.4459075 *  3.0699229  
  14 H       4.2678308    3.7818911    2.4459075 *  0.0000000    1.8080804 *
  15 H       3.7805207    2.5844399 *  3.0699229    1.8080804 *  0.0000000  
  16 H       5.0225888    4.1593967    4.1019124    2.6439768 *  2.5183876 *
  17 H       4.0284511    2.8369806 *  4.4598496    4.0450479    2.8663854 *
  18 H       2.6359352 *  2.5331392 *  4.0727684    5.0102371    4.1827523  
  19 H       3.0188924    4.0511170    3.6313895    5.2310184    5.2499730  
  20 H       4.4952093    5.2752933    3.5469516    4.5254813    5.3016407  

               16 H         17 H         18 H         19 H         20 H     

   1 C       4.0345690    3.1521440    2.4367984 *  3.2545144    4.3529468  
   2 C       3.5072466    3.5694735    3.4928526    3.7406614    3.9911258  
   3 C       2.4413091 *  3.1672976    4.0320243    4.5803149    4.3761200  
   4 C       1.0861141 *  2.1491776 *  3.3734593    3.9227675    3.5354714  
   5 C       2.1390264 *  1.0821882 *  2.1387624 *  3.4165245    3.9154463  
   6 C       3.3770857    2.1531958 *  1.0856732 *  2.2183882 *  3.4658575  
   7 C       3.8949995    3.4491003    2.1920142 *  1.0843780 *  2.1039656 *
   8 C       3.4943407    3.9188950    3.3694773    2.0966549 *  1.0821743 *
   9 C       2.2043331 *  3.4893496    3.9401208    3.4665400    2.2177098 *
  10 O       2.6440413 *  4.5055874    5.1631594    4.4950531    2.6638099 *
  11 H       5.0225888    4.0284511    2.6359352 *  3.0188924    4.4952093  
  12 H       4.1593967    2.8369806 *  2.5331392 *  4.0511170    5.2752933  
  13 H       4.1019124    4.4598496    4.0727684    3.6313895    3.5469516  
  14 H       2.6439768 *  4.0450479    5.0102371    5.2310184    4.5254813  
  15 H       2.5183876 *  2.8663854 *  4.1827523    5.2499730    5.3016407  
  16 H       0.0000000    2.4698905 *  4.2639638    4.9749190    4.3767643  
  17 H       2.4698905 *  0.0000000    2.4694030 *  4.2997531    4.9845554  
  18 H       4.2639638    2.4694030 *  0.0000000    2.4718873 *  4.2760754  
  19 H       4.9749190    4.2997531    2.4718873 *  0.0000000    2.4563222 *
  20 H       4.3767643    4.9845554    4.2760754    2.4563222 *  0.0000000  

  * ... LESS THAN  3.000


     ATOMIC BASIS SET
     ----------------
 THE CONTRACTED PRIMITIVE FUNCTIONS HAVE BEEN UNNORMALIZED
 THE CONTRACTED BASIS FUNCTIONS ARE NOW NORMALIZED TO UNITY

  SHELL TYPE  PRIMITIVE        EXPONENT          CONTRACTION COEFFICIENT(S)

 C         

      1   S       1            71.6168373    0.154328967295
      1   S       2            13.0450963    0.535328142282
      1   S       3             3.5305122    0.444634542185

      2   L       4             2.9412494   -0.099967229187    0.155916274999
      2   L       5             0.6834831    0.399512826089    0.607683718598
      2   L       6             0.2222899    0.700115468880    0.391957393099

 C         

      3   S       7            71.6168373    0.154328967295
      3   S       8            13.0450963    0.535328142282
      3   S       9             3.5305122    0.444634542185

      4   L      10             2.9412494   -0.099967229187    0.155916274999
      4   L      11             0.6834831    0.399512826089    0.607683718598
      4   L      12             0.2222899    0.700115468880    0.391957393099

 C         

      5   S      13            71.6168373    0.154328967295
      5   S      14            13.0450963    0.535328142282
      5   S      15             3.5305122    0.444634542185

      6   L      16             2.9412494   -0.099967229187    0.155916274999
      6   L      17             0.6834831    0.399512826089    0.607683718598
      6   L      18             0.2222899    0.700115468880    0.391957393099

 C         

      7   S      19            71.6168373    0.154328967295
      7   S      20            13.0450963    0.535328142282
      7   S      21             3.5305122    0.444634542185

      8   L      22             2.9412494   -0.099967229187    0.155916274999
      8   L      23             0.6834831    0.399512826089    0.607683718598
      8   L      24             0.2222899    0.700115468880    0.391957393099

 C         

      9   S      25            71.6168373    0.154328967295
      9   S      26            13.0450963    0.535328142282
      9   S      27             3.5305122    0.444634542185

     10   L      28             2.9412494   -0.099967229187    0.155916274999
     10   L      29             0.6834831    0.399512826089    0.607683718598
     10   L      30             0.2222899    0.700115468880    0.391957393099

 C         

     11   S      31            71.6168373    0.154328967295
     11   S      32            13.0450963    0.535328142282
     11   S      33             3.5305122    0.444634542185

     12   L      34             2.9412494   -0.099967229187    0.155916274999
     12   L      35             0.6834831    0.399512826089    0.607683718598
     12   L      36             0.2222899    0.700115468880    0.391957393099

 C         

     13   S      37            71.6168373    0.154328967295
     13   S      38            13.0450963    0.535328142282
     13   S      39             3.5305122    0.444634542185

     14   L      40             2.9412494   -0.099967229187    0.155916274999
     14   L      41             0.6834831    0.399512826089    0.607683718598
     14   L      42             0.2222899    0.700115468880    0.391957393099

 C         

     15   S      43            71.6168373    0.154328967295
     15   S      44            13.0450963    0.535328142282
     15   S      45             3.5305122    0.444634542185

     16   L      46             2.9412494   -0.099967229187    0.155916274999
     16   L      47             0.6834831    0.399512826089    0.607683718598
     16   L      48             0.2222899    0.700115468880    0.391957393099

 C         

     17   S      49            71.6168373    0.154328967295
     17   S      50            13.0450963    0.535328142282
     17   S      51             3.5305122    0.444634542185

     18   L      52             2.9412494   -0.099967229187    0.155916274999
     18   L      53             0.6834831    0.399512826089    0.607683718598
     18   L      54             0.2222899    0.700115468880    0.391957393099

 O         

     19   S      55           130.7093214    0.154328967295
     19   S      56            23.8088661    0.535328142282
     19   S      57             6.4436083    0.444634542185

     20   L      58             5.0331513   -0.099967229187    0.155916274999
     20   L      59             1.1695961    0.399512826089    0.607683718598
     20   L      60             0.3803890    0.700115468880    0.391957393099

 H         

     21   S      61             3.4252509    0.154328967295
     21   S      62             0.6239137    0.535328142282
     21   S      63             0.1688554    0.444634542185

 H         

     22   S      64             3.4252509    0.154328967295
     22   S      65             0.6239137    0.535328142282
     22   S      66             0.1688554    0.444634542185

 H         

     23   S      67             3.4252509    0.154328967295
     23   S      68             0.6239137    0.535328142282
     23   S      69             0.1688554    0.444634542185

 H         

     24   S      70             3.4252509    0.154328967295
     24   S      71             0.6239137    0.535328142282
     24   S      72             0.1688554    0.444634542185

 H         

     25   S      73             3.4252509    0.154328967295
     25   S      74             0.6239137    0.535328142282
     25   S      75             0.1688554    0.444634542185

 H         

     26   S      76             3.4252509    0.154328967295
     26   S      77             0.6239137    0.535328142282
     26   S      78             0.1688554    0.444634542185

 H         

     27   S      79             3.4252509    0.154328967295
     27   S      80             0.6239137    0.535328142282
     27   S      81             0.1688554    0.444634542185

 H         

     28   S      82             3.4252509    0.154328967295
     28   S      83             0.6239137    0.535328142282
     28   S      84             0.1688554    0.444634542185

 H         

     29   S      85             3.4252509    0.154328967295
     29   S      86             0.6239137    0.535328142282
     29   S      87             0.1688554    0.444634542185

 H         

     30   S      88             3.4252509    0.154328967295
     30   S      89             0.6239137    0.535328142282
     30   S      90             0.1688554    0.444634542185

 TOTAL NUMBER OF BASIS SET SHELLS             =   30
 NUMBER OF CARTESIAN GAUSSIAN BASIS FUNCTIONS =   60
 NUMBER OF ELECTRONS                          =   72
 CHARGE OF MOLECULE                           =    0
 SPIN MULTIPLICITY                            =    1
 NUMBER OF OCCUPIED ORBITALS (ALPHA)          =   36
 NUMBER OF OCCUPIED ORBITALS (BETA )          =   36
 TOTAL NUMBER OF ATOMS                        =   20
 THE NUCLEAR REPULSION ENERGY IS      513.0612456767

     $CONTRL OPTIONS
     ---------------
 SCFTYP=RHF          RUNTYP=SADPOINT     EXETYP=RUN     
 MPLEVL=       0     CITYP =NONE         CCTYP =NONE         VBTYP =NONE    
 DFTTYP=NONE         TDDFT =NONE    
 MULT  =       1     ICHARG=       0     NZVAR =       1     COORD =UNIQUE  
 PP    =NONE         RELWFN=NONE         LOCAL =NONE         NUMGRD=       F
 ISPHER=      -1     NOSYM =       0     MAXIT =      30     UNITS =ANGS    
 PLTORB=       F     MOLPLT=       F     AIMPAC=       F     FRIEND=        
 NPRINT=       7     IREST =       0     GEOM  =INPUT   
 NORMF =       0     NORMP =       0     ITOL  =      20     ICUT  =       9
 INTTYP=BEST         GRDTYP=BEST         QMTTOL= 1.0E-06

     $SYSTEM OPTIONS
     ---------------
  REPLICATED MEMORY=     1000000 WORDS (ON EVERY NODE).
 DISTRIBUTED MEMDDI=           0 MILLION WORDS IN AGGREGATE,
 MEMDDI DISTRIBUTED OVER   1 PROCESSORS IS           0 WORDS/PROCESSOR.
 TOTAL MEMORY REQUESTED ON EACH PROCESSOR=     1000000 WORDS.
 TIMLIM=      525600.00 MINUTES, OR     365.0 DAYS.
 PARALL= F  BALTYP=  DLB     KDIAG=    0  COREFL= F
 MXSEQ2=     300 MXSEQ3=     150  mem10=         0

          ----------------
          PROPERTIES INPUT
          ----------------

     MOMENTS            FIELD           POTENTIAL          DENSITY
 IEMOM =       1   IEFLD =       0   IEPOT =       0   IEDEN =       0
 WHERE =COMASS     WHERE =NUCLEI     WHERE =NUCLEI     WHERE =NUCLEI  
 OUTPUT=BOTH       OUTPUT=BOTH       OUTPUT=BOTH       OUTPUT=BOTH    
 IEMINT=       0   IEFINT=       0                     IEDINT=       0
                                                       MORB  =       0
          EXTRAPOLATION IN EFFECT
          SOSCF IN EFFECT
 ORBITAL PRINTING OPTION: NPREO=     1    60     2     1

     -------------------------------
     INTEGRAL TRANSFORMATION OPTIONS
     -------------------------------
     NWORD  =            0
     CUTOFF = 1.0E-09     MPTRAN =       0
     DIRTRF =       F     AOINTS =DUP     

          ----------------------
          INTEGRAL INPUT OPTIONS
          ----------------------
 NOPK  =       1 NORDER=       0 SCHWRZ=       T


 -----------------------------------------------
  STATISTICS ON AUTOMATIC COORDINATE GENERATION 
 -----------------------------------------------
  NUMBER OF USER SPECIFIED BONDS                             6
  NUMBER OF BONDS                                           25
  NUMBER OF ANGLES                                          61
  NUMBER OF TORSIONS                                        62
  NUMBER OF EXTRA COORD.                                     0
  NUMBER OF EXTRA COORD. FOR CONSTRAINTS                     0
  NUMBER OF CONSTRAINED COORD.                               0

  TOTAL NUMBER OF PRIMITIVES                               148
 -----------------------------------------------

   --- ENCODED Z MATRIX ---
 COORD  TYPE   I   J   K   L   M   N
    1      1    1   6
    2      1    1  11
    3      1    1   2
    4      1    1  12
    5      1    1   2
    6      1    2  13
    7      1    2   3
    8      1    2   3
    9      1    3  15
   10      1    3  14
   11      1    3   4
   12      1    4   9
   13      1    4   5
   14      1    4  16
   15      1    4   5
   16      1    5   6
   17      1    5   6
   18      1    5  17
   19      1    6   7
   20      1    6  18
   21      1    7   8
   22      1    7  19
   23      1    8  20
   24      1    8   9
   25      1    9  10
   26      2    1   6   5
   27      2    1   6   5
   28      2    1   2   3
   29      2    1   6  18
   30      2    1   2  13
   31      2    1   2   3
   32      2    1   6   7
   33      2    1   2   3
   34      2    1   2   3
   35      2    1   2  13
   36      2    2   3  14
   37      2    2   1  11
   38      2    2   1  12
   39      2    2   1   6
   40      2    2   3   4
   41      2    2   3  15
   42      2    2   3  14
   43      2    2   3   4
   44      2    2   3  15
   45      2    2   1  11
   46      2    2   1   6
   47      2    2   1  12
   48      2    3   4   9
   49      2    3   2  13
   50      2    3   2  13
   51      2    3   4   5
   52      2    3   4  16
   53      2    3   4   5
   54      2    4   3  15
   55      2    4   5   6
   56      2    4   5   6
   57      2    4   5  17
   58      2    4   5   6
   59      2    4   5   6
   60      2    4   9  10
   61      2    4   9   8
   62      2    4   3  14
   63      2    4   5  17
   64      2    5   6   7
   65      2    5   6  18
   66      2    5   6  18
   67      2    5   6   7
   68      2    5   4  16
   69      2    5   4  16
   70      2    5   4   9
   71      2    5   4   9
   72      2    6   1  12
   73      2    6   1  11
   74      2    6   7  19
   75      2    6   7   8
   76      2    6   5  17
   77      2    6   5  17
   78      2    7   8   9
   79      2    7   8  20
   80      2    7   6  18
   81      2    8   9  10
   82      2    8   7  19
   83      2    9   8  20
   84      2    9   4  16
   85      2   11   1  12
   86      2   14   3  15
   87      3    1   6   5  17
   88      3    1   6   5   4
   89      3    1   2   3   4
   90      3    1   6   7  19
   91      3    1   6   7   8
   92      3    1   2   3  14
   93      3    1   2   3  15
   94      3    2   1   6  18
   95      3    2   3   4  16
   96      3    2   3   4   5
   97      3    2   3   4   9
   98      3    2   1   6   7
   99      3    2   1   6   5
  100      3    3   4   5  17
  101      3    3   4   5   6
  102      3    3   2   1   6
  103      3    3   4   9  10
  104      3    3   4   9   8
  105      3    3   2   1  12
  106      3    3   2   1  11
  107      3    4   9   8  20
  108      3    4   9   8   7
  109      3    4   5   6  18
  110      3    4   3   2  13
  111      3    4   5   6   7
  112      3    5   4   3  14
  113      3    5   4   3  15
  114      3    5   6   1  11
  115      3    5   6   1  12
  116      3    5   6   7  19
  117      3    5   6   7   8
  118      3    5   4   9   8
  119      3    5   4   9  10
  120      3    6   7   8   9
  121      3    6   7   8  20
  122      3    6   1   2  13
  123      3    6   5   4  16
  124      3    6   5   4   9
  125      3    7   8   9  10
  126      3    7   6   5  17
  127      3    7   6   1  12
  128      3    7   6   1  11
  129      3    8   7   6  18
  130      3    8   9   4  16
  131      3    9   8   7  19
  132      3    9   4   3  14
  133      3    9   4   3  15
  134      3    9   4   5  17
  135      3   10   9   8  20
  136      3   10   9   4  16
  137      3   11   1   2  13
  138      3   11   1   6  18
  139      3   12   1   2  13
  140      3   12   1   6  18
  141      3   13   2   3  14
  142      3   13   2   3  15
  143      3   14   3   4  16
  144      3   15   3   4  16
  145      3   16   4   5  17
  146      3   17   5   6  18
  147      3   18   6   7  19
  148      3   19   7   8  20

          INDEP./SYM. INTERNAL COORDINATES
          --------------------------------
 CRD  1=  -0.1495 (  1) -0.1521 ( 11) -0.1167 ( 12) -0.1175 ( 19)  0.1381 ( 26)
           0.1381 ( 27)  0.1214 ( 29) -0.4044 ( 32) -0.4023 ( 48)  0.1373 ( 51)
           0.1199 ( 52)  0.1373 ( 53)  0.2011 ( 87)  0.2092 ( 88) -0.2036 (100)
          -0.2118 (101) -0.1577 (111) -0.1026 (119)  0.1548 (124) -0.1658 (126)
           0.1629 (134)
 CRD  2=   0.2930 ( 12) -0.2960 ( 19) -0.2083 ( 21)  0.1519 ( 24)  0.1076 ( 29)
           0.1289 ( 39) -0.1296 ( 40) -0.1296 ( 43)  0.1289 ( 46) -0.1071 ( 52)
           0.2021 ( 60) -0.1477 ( 74) -0.1866 ( 79) -0.1154 ( 80) -0.1226 ( 81)
           0.1830 ( 83)  0.1264 ( 84)  0.1073 ( 87)  0.1074 ( 88) -0.1444 ( 96)
          -0.2045 ( 97) -0.1895 ( 98) -0.1435 ( 99)  0.1016 (100)  0.1039 (101)
          -0.1288 (127) -0.1367 (128) -0.1474 (132) -0.1376 (133)
 CRD  3=   0.1016 (  1) -0.1043 (  2) -0.2461 ( 12)  0.1308 ( 19)  0.1668 ( 22)
           0.1966 ( 24) -0.1343 ( 25) -0.1813 ( 26) -0.1813 ( 27)  0.1577 ( 29)
           0.1212 ( 39)  0.1212 ( 46)  0.1747 ( 51) -0.1556 ( 52)  0.1747 ( 53)
          -0.3551 ( 60)  0.1572 ( 61)  0.1017 ( 62)  0.1028 ( 64)  0.1028 ( 67)
           0.1026 ( 74) -0.1500 ( 75)  0.1980 ( 81) -0.1055 ( 89) -0.1743 ( 90)
          -0.1827 ( 91) -0.1796 (103) -0.1983 (104) -0.1158 (110)
 CRD  4=  -0.4217 (  1)  0.4112 ( 11)  0.1112 ( 24)  0.1371 ( 39) -0.1047 ( 40)
          -0.1047 ( 43)  0.1371 ( 46) -0.1422 ( 60)  0.2207 ( 62) -0.1166 ( 72)
          -0.2006 ( 73)  0.1329 ( 81) -0.1069 ( 89)  0.1281 ( 90)  0.1540 ( 91)
           0.1362 (103)  0.1619 (104) -0.1088 (105) -0.1037 (110)  0.1103 (116)
           0.1361 (117)  0.1509 (118)  0.1251 (119)
 CRD  5=  -0.1023 (  1)  0.1698 ( 12)  0.3347 ( 19) -0.1527 ( 21) -0.2566 ( 24)
          -0.1061 ( 25) -0.1431 ( 40) -0.1431 ( 43)  0.1463 ( 54)  0.2642 ( 60)
           0.1204 ( 61) -0.1480 ( 73)  0.3147 ( 74) -0.3847 ( 81) -0.2533 ( 82)
          -0.1310 ( 83) -0.1482 (102) -0.1648 (122)
 CRD  6=   0.3593 ( 12)  0.3366 ( 19)  0.2490 ( 21)  0.3256 ( 23)  0.3486 ( 24)
           0.1360 ( 25)  0.1912 ( 54) -0.1275 ( 60) -0.1150 ( 62)  0.2015 ( 72)
           0.1006 ( 75) -0.2265 ( 78)  0.2164 ( 83)  0.1720 ( 89) -0.1335 (102)
           0.1728 (110) -0.1350 (122)
 CRD  7=   0.5403 (  1)  0.5531 ( 11)  0.1031 ( 29)  0.1098 ( 52)  0.1495 ( 54)
           0.1460 ( 72)  0.1429 ( 87)  0.1153 ( 88)  0.1001 ( 92) -0.1108 ( 93)
          -0.1450 (100) -0.1162 (101)  0.1117 (105)  0.1028 (126) -0.1071 (134)
           0.1348 (139) -0.1335 (142)
 CRD  8=   0.4415 ( 21)  0.1042 ( 22) -0.1501 ( 24)  0.1462 ( 60) -0.3191 ( 74)
           0.4472 ( 79) -0.1892 ( 81)  0.3851 ( 82) -0.4054 ( 83)
 CRD  9=   0.2375 (  2)  0.1795 (  3)  0.1795 (  5) -0.1097 (  6)  0.2053 (  7)
           0.2053 (  8)  0.1517 ( 10) -0.1308 ( 12)  0.1576 ( 16)  0.1576 ( 17)
           0.1005 ( 23) -0.1493 ( 25)  0.1676 ( 28)  0.1676 ( 31)  0.1676 ( 33)
           0.1676 ( 34)  0.1387 ( 41)  0.1387 ( 44) -0.1195 ( 49) -0.1195 ( 50)
          -0.1869 ( 60)  0.1559 ( 61) -0.1129 ( 74) -0.1179 ( 78)  0.1204 ( 79)
          -0.1022 ( 98) -0.1164 ( 99)  0.1113 (113) -0.1697 (115) -0.1555 (127)
           0.1027 (133)
 CRD 10=   0.1071 (  3)  0.1603 (  4)  0.1071 (  5)  0.1755 ( 10)  0.1690 ( 12)
           0.1676 ( 13)  0.1676 ( 15) -0.1064 ( 16) -0.1064 ( 17) -0.2702 ( 19)
          -0.1885 ( 22)  0.1719 ( 25) -0.1039 ( 30) -0.1039 ( 35)  0.1111 ( 38)
           0.1111 ( 47)  0.1817 ( 57)  0.1817 ( 63) -0.2247 ( 74)  0.1407 ( 75)
          -0.1756 ( 76) -0.1756 ( 77)  0.1513 ( 94)  0.1102 ( 95)  0.1694 ( 96)
           0.1602 ( 97)  0.1279 ( 98)  0.1289 ( 99)  0.1234 (113)  0.1142 (133)
 CRD 11=  -0.1270 (  9)  0.2439 ( 12)  0.1247 ( 14)  0.3167 ( 18)  0.1704 ( 19)
           0.2274 ( 23)  0.1138 ( 40)  0.1138 ( 43) -0.1153 ( 48) -0.2655 ( 54)
           0.1191 ( 62) -0.2624 ( 72)  0.1406 ( 73)  0.1199 ( 75) -0.1612 ( 78)
          -0.1117 ( 81)  0.1135 ( 83) -0.2125 ( 89)  0.1863 (102) -0.2222 (110)
           0.2036 (122)
 CRD 12=  -0.1278 (  3) -0.1278 (  5) -0.1192 (  7) -0.1192 (  8) -0.1868 ( 13)
          -0.1659 ( 14) -0.1868 ( 15) -0.1725 ( 16) -0.1725 ( 17) -0.2146 ( 20)
          -0.1660 ( 21) -0.3341 ( 22)  0.1907 ( 23) -0.2041 ( 24) -0.3537 ( 25)
          -0.1102 ( 60)  0.2040 ( 61) -0.1702 ( 74)  0.1999 ( 75) -0.3003 ( 78)
           0.1575 ( 79)  0.1427 ( 83)
 CRD 13=  -0.1055 (  1)  0.1157 ( 13) -0.3429 ( 14)  0.1157 ( 15) -0.1051 ( 16)
          -0.1051 ( 17)  0.3261 ( 20) -0.2223 ( 22) -0.1250 ( 24)  0.1677 ( 25)
          -0.1143 ( 61)  0.1073 ( 62) -0.1551 ( 64) -0.1551 ( 67)  0.1587 ( 70)
           0.1587 ( 71)  0.1446 ( 75)  0.1481 ( 80)  0.1673 ( 81) -0.1892 ( 82)
          -0.1506 ( 84) -0.1094 ( 91) -0.1010 ( 96) -0.1183 (104)  0.1183 (132)
 CRD 14=  -0.1892 (  2) -0.2419 (  3) -0.2419 (  5) -0.3148 (  6) -0.2191 (  7)
          -0.2191 (  8) -0.1937 ( 10)  0.1528 ( 13)  0.1547 ( 14)  0.1528 ( 15)
           0.1777 ( 16)  0.1777 ( 17)  0.1852 ( 18) -0.1354 ( 36) -0.1423 ( 37)
          -0.1354 ( 42) -0.1423 ( 45)  0.1066 ( 65)  0.1066 ( 66)  0.1081 ( 68)
           0.1081 ( 69) -0.1023 ( 80)  0.1029 ( 94)  0.1274 (112) -0.1143 (114)
           0.1073 (125) -0.1237 (128) -0.1041 (131)
 CRD 15=  -0.2247 (  3) -0.3003 (  4) -0.2247 (  5)  0.2418 (  7)  0.2418 (  8)
           0.3118 (  9) -0.2885 ( 30) -0.2885 ( 35)  0.1022 ( 36)  0.1022 ( 42)
           0.2954 ( 49)  0.2954 ( 50)
 CRD 16=   0.1348 ( 13)  0.2664 ( 14)  0.1348 ( 15) -0.1090 ( 16) -0.1090 ( 17)
          -0.2339 ( 20) -0.1112 ( 38)  0.1183 ( 41)  0.1183 ( 44) -0.1112 ( 47)
          -0.1679 ( 54)  0.2053 ( 57)  0.1024 ( 62)  0.2053 ( 63)  0.1635 ( 72)
          -0.1398 ( 73) -0.2014 ( 76) -0.2014 ( 77)  0.1102 ( 92)  0.1626 ( 93)
           0.1632 (105)  0.1402 (106) -0.1037 (117) -0.1240 (118) -0.1123 (119)
           0.1158 (126)  0.1365 (137)  0.1596 (139)  0.1101 (141)  0.1625 (142)
           0.1094 (146)
 CRD 17=  -0.1408 (  1)  0.1193 (  3)  0.1689 (  4)  0.1193 (  5)  0.2577 (  6)
           0.2279 ( 14)  0.1045 ( 16)  0.1045 ( 17) -0.1531 ( 29)  0.1090 ( 38)
           0.1090 ( 47)  0.1437 ( 54) -0.1072 ( 62) -0.1437 ( 72) -0.1521 ( 93)
          -0.1079 (101) -0.1099 (104) -0.1514 (105)  0.1793 (107)  0.2104 (108)
           0.1498 (109)  0.1430 (111) -0.1147 (117) -0.1726 (118) -0.1354 (119)
           0.1728 (125)  0.1083 (126) -0.1438 (129) -0.1615 (130)  0.1417 (135)
          -0.1243 (136) -0.1644 (139) -0.1612 (142)  0.1150 (146) -0.1225 (147)
 CRD 18=   0.1422 (  6)  0.3760 ( 14) -0.3810 ( 18)  0.5423 ( 20) -0.2331 ( 22)
           0.1370 ( 23) -0.1851 ( 25)
 CRD 19=   0.1563 (  2) -0.1694 (  4) -0.4288 (  6) -0.1674 (  9)  0.2175 ( 14)
          -0.3471 ( 18)  0.1136 ( 52) -0.1025 ( 72)  0.1225 ( 73) -0.1304 ( 94)
          -0.1121 (105) -0.1130 (106) -0.1095 (117) -0.1190 (118) -0.1070 (119)
           0.1534 (120)  0.1347 (121)  0.1268 (124) -0.1155 (130)  0.1280 (131)
           0.1351 (134) -0.1035 (136)  0.1073 (145)  0.1092 (148)
 CRD 20=  -0.1535 (  2)  0.1136 (  4) -0.1594 (  6) -0.3032 (  9)  0.3335 ( 10)
          -0.1272 ( 13) -0.1272 ( 15) -0.1787 ( 54) -0.1614 ( 57)  0.1293 ( 62)
          -0.1614 ( 63) -0.1296 ( 68) -0.1296 ( 69)  0.1639 ( 72) -0.1194 ( 73)
           0.1542 ( 76)  0.1542 ( 77)  0.1080 ( 84)  0.1301 ( 92)  0.1832 ( 93)
           0.1649 ( 95)  0.1771 (105)  0.1270 (106) -0.1084 (130)  0.1385 (137)
           0.1885 (139)  0.1423 (141)  0.1955 (142)
 CRD 21=  -0.2786 (  2)  0.3333 (  4)  0.3396 (  6)  0.1851 (  9) -0.1029 ( 37)
          -0.1029 ( 45)  0.1020 ( 52)  0.1117 ( 62) -0.1042 ( 87) -0.1308 ( 88)
          -0.1033 ( 90) -0.1308 ( 91)  0.1215 ( 92)  0.1103 (101) -0.1128 (108)
          -0.1311 (109)  0.1943 (120)  0.1807 (121)  0.1797 (123)  0.1615 (124)
          -0.1136 (125) -0.1078 (129)  0.1658 (131)  0.1171 (134) -0.1006 (135)
           0.1025 (141)  0.1353 (145) -0.1046 (146)  0.1521 (148)
 CRD 22=  -0.2681 (  2) -0.1746 (  4) -0.1667 (  6) -0.2235 (  9) -0.2114 ( 10)
           0.1178 ( 14)  0.1325 ( 18)  0.1088 ( 36)  0.1088 ( 42) -0.2372 ( 62)
          -0.2442 ( 73) -0.2886 ( 92) -0.1859 ( 93)  0.1964 (105)  0.3029 (106)
           0.1091 (123)  0.2173 (137)  0.1109 (139) -0.2012 (141)
 CRD 23=  -0.4492 (  2) -0.3504 (  4)  0.3616 (  9)  0.4870 ( 10) -0.1735 ( 85)
           0.1837 ( 86) -0.1012 (113) -0.1052 (133) -0.1105 (144)
 CRD 24=  -0.3863 (  2) -0.3472 (  4)  0.1682 (  6) -0.2830 (  9) -0.3825 ( 10)
          -0.2006 ( 18)  0.1229 ( 38)  0.1277 ( 41)  0.1277 ( 44)  0.1229 ( 47)
          -0.1785 ( 85) -0.1623 ( 86) -0.1076 (106)  0.1439 (113) -0.1337 (115)
          -0.1385 (127)  0.1456 (133) -0.1012 (137) -0.1523 (140)  0.1633 (144)
 CRD 25=  -0.1836 (  2)  0.1762 (  4) -0.3693 (  9)  0.2124 ( 10)  0.1272 ( 13)
           0.1272 ( 15)  0.1233 ( 22) -0.2036 ( 25)  0.1531 ( 36) -0.1054 ( 41)
           0.1531 ( 42) -0.1054 ( 44)  0.1013 ( 73) -0.1088 ( 95) -0.2047 (112)
          -0.1599 (113) -0.1162 (114) -0.1162 (115) -0.1033 (127) -0.1033 (128)
          -0.1941 (132) -0.1493 (133) -0.1537 (138) -0.1537 (140) -0.2508 (143)
          -0.2060 (144)
 CRD 26=  -0.1411 (  2)  0.3422 (  4) -0.1049 (  6)  0.1951 (  9) -0.3549 ( 18)
           0.2010 ( 22) -0.1259 ( 37) -0.1259 ( 45) -0.1006 ( 89) -0.2115 ( 92)
           0.1270 (102)  0.2138 (106) -0.1877 (114) -0.1336 (115) -0.1351 (127)
          -0.1892 (128)  0.1051 (132)  0.1490 (137) -0.2214 (138) -0.1673 (140)
          -0.1415 (141)  0.1039 (143)
 CRD 27=  -0.1207 ( 20) -0.1875 ( 29) -0.1727 ( 52) -0.2711 (107) -0.1293 (108)
           0.2562 (109)  0.1440 (111) -0.1536 (117)  0.1175 (118)  0.1513 (120)
           0.3009 (121) -0.2416 (123) -0.1350 (124) -0.2721 (129)  0.2244 (130)
          -0.2073 (135)  0.1609 (136) -0.1994 (145)  0.2104 (146) -0.2110 (147)
           0.2374 (148)
 CRD 28=   0.1714 ( 12)  0.3548 ( 14) -0.2133 ( 20) -0.1085 ( 21) -0.4179 ( 22)
          -0.2373 ( 23)  0.3117 ( 25) -0.2562 ( 60)  0.3169 ( 79)  0.2546 ( 81)
          -0.1126 ( 82) -0.3093 ( 83)
 CRD 29=   0.2158 ( 12)  0.1026 ( 18)  0.2317 ( 19)  0.2618 ( 20) -0.6348 ( 23)
          -0.1218 ( 24) -0.2663 ( 25) -0.1224 ( 60) -0.2681 ( 74)  0.2347 ( 82)
           0.1299 ( 83)
 CRD 30=  -0.1669 (  1) -0.1685 ( 11)  0.1291 ( 14)  0.1715 ( 18)  0.1295 ( 20)
           0.1075 ( 52)  0.1909 ( 87) -0.2425 ( 90) -0.1920 (100)  0.2370 (103)
           0.2009 (107) -0.2795 (116)  0.2716 (119) -0.1981 (121) -0.2735 (125)
           0.2131 (126) -0.1163 (130)  0.2746 (131) -0.2038 (134)  0.1149 (136)
          -0.1027 (139)  0.1016 (142) -0.1275 (147)
 CRD 31=   0.2472 ( 12)  0.2383 ( 14) -0.2394 ( 19) -0.2284 ( 20)  0.3306 ( 21)
           0.2932 ( 22) -0.3662 ( 24) -0.3248 ( 25) -0.1093 ( 60) -0.1230 ( 61)
           0.1237 ( 74)  0.2323 ( 81) -0.2201 ( 82)
 CRD 32=   0.2040 (  2) -0.2593 (  4)  0.3997 (  6) -0.2582 (  9)  0.2066 ( 10)
           0.1580 ( 12) -0.3453 ( 18)  0.1450 ( 19)  0.2399 ( 22) -0.1546 ( 23)
          -0.1362 ( 24)  0.2211 ( 25) -0.1073 ( 78)  0.1129 ( 94) -0.1107 ( 95)
           0.1276 (140) -0.1235 (144)
 CRD 33=   0.1890 ( 12) -0.2331 ( 14) -0.2011 ( 19)  0.3072 ( 20) -0.1889 ( 21)
           0.1972 ( 22)  0.1151 ( 23) -0.1055 ( 25)  0.1650 ( 57) -0.1779 ( 60)
           0.1650 ( 63)  0.1457 ( 74) -0.1616 ( 76) -0.1616 ( 77)  0.2549 ( 79)
          -0.1179 ( 80)  0.2232 ( 81) -0.1891 ( 82) -0.2748 ( 83)  0.1457 ( 84)
          -0.1222 (127) -0.1334 (133)
 CRD 34=  -0.1917 ( 12) -0.1407 ( 13)  0.2750 ( 14) -0.1407 ( 15) -0.1505 ( 16)
          -0.1505 ( 17)  0.2023 ( 18) -0.1106 ( 19)  0.2092 ( 20) -0.2574 ( 21)
           0.3651 ( 22)  0.2334 ( 23) -0.2960 ( 24)  0.4319 ( 25) -0.1115 ( 74)
 CRD 35=  -0.1147 (  2)  0.1369 (  4) -0.3640 (  6)  0.1435 (  9) -0.1325 ( 10)
          -0.2493 ( 18) -0.1640 ( 23) -0.1637 ( 54) -0.1633 ( 72)  0.1644 ( 93)
           0.1334 ( 94) -0.1229 ( 95) -0.1595 (105) -0.1217 (112)  0.1225 (114)
           0.1142 (128) -0.1210 (132)  0.2098 (138) -0.2227 (139)  0.1197 (140)
           0.2306 (142) -0.1978 (143) -0.1236 (144)
 CRD 36=   0.2625 (  2)  0.1642 (  3)  0.1642 (  5) -0.1654 (  7) -0.1654 (  8)
          -0.2588 ( 10) -0.1053 ( 12) -0.2222 ( 30) -0.2222 ( 35)  0.1491 ( 38)
          -0.1533 ( 41) -0.1533 ( 44)  0.1491 ( 47)  0.2225 ( 49)  0.2225 ( 50)
          -0.1723 ( 85)  0.1713 ( 86) -0.1713 (113) -0.1734 (115) -0.1424 (127)
          -0.1410 (133)  0.1043 (137)  0.1304 (139) -0.1707 (140)  0.1101 (142)
          -0.1670 (144)
 CRD 37=   0.1808 (  1) -0.1313 (  4)  0.1302 (  6) -0.1285 (  9)  0.1757 ( 11)
           0.1666 ( 18) -0.1104 ( 22) -0.1161 ( 25) -0.1044 ( 54) -0.1432 ( 62)
          -0.1033 ( 72) -0.1440 ( 73) -0.1422 ( 92)  0.1381 ( 93) -0.1356 (105)
           0.1396 (106) -0.1216 (107)  0.2503 (110)  0.1276 (121) -0.2509 (122)
          -0.1001 (136) -0.3510 (139)  0.3538 (142)  0.1047 (147)
 CRD 38=   0.1809 ( 12)  0.1179 ( 13)  0.1179 ( 15) -0.1431 ( 18)  0.2433 ( 19)
          -0.4053 ( 21)  0.3346 ( 23) -0.1850 ( 25) -0.1717 ( 61) -0.1840 ( 74)
           0.2709 ( 78)  0.2053 ( 81)  0.2577 ( 82) -0.2019 ( 83)  0.1092 (119)
          -0.1049 (125) -0.1026 (129) -0.1039 (148)
 CRD 39=   0.1209 ( 12)  0.1122 ( 16)  0.1122 ( 17)  0.1210 ( 19) -0.1516 ( 22)
           0.2101 ( 23) -0.2803 ( 24) -0.1121 ( 52) -0.1086 ( 72) -0.1155 ( 73)
          -0.1447 ( 75)  0.1851 ( 78) -0.1973 ( 79)  0.1116 ( 81)  0.1871 ( 82)
          -0.1233 ( 90)  0.1373 ( 92) -0.1172 (105)  0.1516 (106) -0.1268 (109)
          -0.1662 (116) -0.1302 (119) -0.1481 (123)  0.1162 (125)  0.1238 (129)
           0.1917 (130)  0.1840 (131)  0.2038 (135)  0.1383 (137) -0.1305 (139)
           0.1644 (141) -0.1299 (145) -0.1455 (146)
 CRD 40=   0.1192 ( 16)  0.1192 ( 17)  0.3223 ( 21) -0.2335 ( 22) -0.4079 ( 24)
           0.1975 ( 25)  0.1083 ( 57) -0.1550 ( 60)  0.1321 ( 61)  0.1083 ( 63)
           0.1191 ( 74) -0.1859 ( 75) -0.1113 ( 76) -0.1113 ( 77) -0.2349 ( 79)
           0.1698 ( 83) -0.1207 ( 92) -0.1098 (106)  0.1069 (109) -0.1017 (129)
          -0.1138 (133) -0.1171 (137) -0.1093 (141)  0.1289 (145)  0.1149 (146)
 CRD 41=  -0.1965 (  1) -0.2253 ( 11)  0.1003 ( 12)  0.1024 ( 19)  0.1117 ( 29)
           0.1000 ( 52)  0.1977 ( 87)  0.1146 ( 90) -0.1987 (100) -0.1077 (103)
          -0.2522 (107) -0.1351 (109)  0.2765 (121)  0.1225 (123)  0.1194 (125)
           0.2724 (126)  0.1667 (129) -0.1547 (130) -0.1264 (131) -0.2571 (134)
          -0.1645 (135) -0.2415 (136) -0.1211 (142)  0.2654 (147)  0.1738 (148)
 CRD 42=  -0.2944 (  1)  0.2691 ( 11)  0.1480 ( 36) -0.1519 ( 37)  0.1480 ( 42)
          -0.1519 ( 45) -0.1281 ( 54) -0.1038 ( 62)  0.1312 ( 72)  0.1044 ( 73)
          -0.1166 ( 90) -0.1398 ( 92)  0.1372 ( 93) -0.1515 (103)  0.1331 (105)
          -0.1396 (106) -0.1301 (109) -0.1402 (116) -0.1739 (119) -0.1101 (123)
           0.1898 (125)  0.1233 (129)  0.1251 (130)  0.1946 (131)  0.2226 (135)
          -0.1191 (136) -0.1450 (137)  0.1277 (139) -0.1551 (141)  0.1219 (142)
          -0.1312 (145) -0.1037 (146)  0.1601 (148)
 CRD 43=   0.2029 (  4) -0.1986 (  9)  0.2244 ( 12) -0.2281 ( 19) -0.1025 ( 30)
          -0.1025 ( 35) -0.1125 ( 36)  0.1144 ( 37) -0.1125 ( 42)  0.1144 ( 45)
           0.1056 ( 49)  0.1056 ( 50) -0.1166 ( 57) -0.1166 ( 63) -0.1639 ( 65)
          -0.1639 ( 66)  0.1699 ( 68)  0.1699 ( 69)  0.1219 ( 76)  0.1219 ( 77)
           0.1219 ( 80) -0.1440 ( 84) -0.1482 ( 85)  0.1297 ( 86) -0.1728 ( 92)
          -0.1720 ( 94) -0.1842 ( 95) -0.1777 (106)  0.1693 (112)  0.1780 (114)
           0.1281 (128)  0.1341 (132) -0.1532 (137) -0.1324 (140) -0.1515 (141)
          -0.1319 (144)
 CRD 44=  -0.1652 (  2)  0.1413 (  3)  0.1413 (  5)  0.1484 (  7)  0.1484 (  8)
          -0.1537 ( 10)  0.1669 ( 13) -0.1839 ( 14)  0.1669 ( 15)  0.1464 ( 16)
           0.1464 ( 17) -0.1799 ( 20)  0.1307 ( 22)  0.1059 ( 25) -0.1249 ( 38)
          -0.1156 ( 41) -0.1156 ( 44) -0.1249 ( 47) -0.1158 ( 60)  0.1185 ( 61)
          -0.1262 ( 64) -0.1262 ( 67) -0.1275 ( 70) -0.1275 ( 71) -0.1267 ( 74)
           0.1422 ( 75)  0.1678 ( 80)  0.1516 ( 84)  0.1708 ( 85)  0.1872 ( 86)
          -0.1074 ( 94)  0.1207 (112)  0.2189 (127) -0.2086 (133) -0.1432 (138)
           0.1535 (143)
 CRD 45=   0.2061 (  4) -0.2019 (  9) -0.2050 ( 12)  0.2095 ( 19) -0.1300 ( 36)
           0.1341 ( 37) -0.1300 ( 42)  0.1341 ( 45)  0.1283 ( 65)  0.1283 ( 66)
          -0.1288 ( 68) -0.1288 ( 69) -0.1199 ( 80)  0.1181 ( 84) -0.1289 ( 85)
           0.1155 ( 86) -0.1237 ( 92) -0.1422 ( 96) -0.1389 ( 99) -0.1256 (106)
          -0.1182 (109) -0.1186 (123)  0.1254 (128)  0.1203 (132) -0.1114 (137)
           0.2536 (138)  0.1091 (140) -0.1100 (141)  0.2476 (143)  0.1185 (144)
          -0.1037 (145) -0.1077 (146)
 CRD 46=  -0.1515 (  2)  0.1949 (  3)  0.1949 (  5)  0.1986 (  7)  0.1986 (  8)
          -0.1491 ( 10) -0.1666 ( 13)  0.1346 ( 14) -0.1666 ( 15) -0.1472 ( 16)
          -0.1472 ( 17)  0.1232 ( 20) -0.1041 ( 29) -0.1192 ( 38) -0.1173 ( 41)
          -0.1173 ( 44) -0.1192 ( 47) -0.1080 ( 52) -0.1193 ( 80) -0.1168 ( 84)
           0.1740 ( 85)  0.1792 ( 86)  0.1103 ( 90)  0.1053 ( 97) -0.1118 ( 98)
          -0.1052 (103) -0.1470 (113)  0.1385 (115) -0.1809 (128)  0.1821 (132)
           0.1953 (140) -0.1912 (144)
 CRD 47=   0.1067 (  2) -0.2218 (  3) -0.2218 (  5)  0.2303 (  7)  0.2303 (  8)
          -0.1100 ( 10)  0.2504 ( 13) -0.1177 ( 14)  0.2504 ( 15) -0.2543 ( 16)
          -0.2543 ( 17)  0.1267 ( 20)  0.1497 ( 30)  0.1497 ( 35)  0.1042 ( 38)
          -0.1054 ( 41) -0.1054 ( 44)  0.1042 ( 47) -0.1482 ( 49) -0.1482 ( 50)
          -0.1706 ( 57) -0.1706 ( 63)  0.1053 ( 64)  0.1053 ( 67)  0.1733 ( 76)
           0.1733 ( 77)  0.1159 ( 96)  0.1212 ( 99) -0.1215 (127) -0.1178 (133)
 CRD 48=   0.2066 (  1) -0.1984 ( 11)  0.1277 ( 48)  0.1003 ( 52) -0.1924 (103)
           0.1659 (104) -0.2395 (108)  0.1414 (109) -0.1171 (111)  0.1611 (117)
           0.2520 (118) -0.1063 (119) -0.1605 (121)  0.1751 (123)  0.1210 (125)
          -0.1161 (129)  0.1615 (131) -0.1624 (134)  0.2976 (135) -0.3601 (136)
           0.2206 (146) -0.2463 (147)
 CRD 49=  -0.1257 (  2)  0.2472 (  3)  0.2472 (  5) -0.2372 (  7) -0.2372 (  8)
           0.1242 ( 10)  0.2082 ( 13) -0.1031 ( 14)  0.2082 ( 15) -0.2065 ( 16)
          -0.2065 ( 17)  0.1130 ( 20) -0.1332 ( 30) -0.1332 ( 35) -0.1166 ( 38)
           0.1149 ( 41)  0.1149 ( 44) -0.1166 ( 47)  0.1354 ( 49)  0.1354 ( 50)
          -0.1182 ( 57) -0.1182 ( 63)  0.1193 ( 76)  0.1193 ( 77)  0.1136 ( 85)
          -0.1084 ( 86) -0.1180 ( 97) -0.1241 ( 98)  0.1343 (113)  0.1432 (115)
          -0.1165 (128) -0.1030 (132)  0.1286 (140)  0.1241 (144)
 CRD 50=  -0.1048 (  2)  0.1031 (  4)  0.1723 (  6) -0.1028 ( 10) -0.1123 ( 12)
           0.1029 ( 13)  0.1029 ( 15) -0.1705 ( 18) -0.1121 ( 19)  0.1887 ( 28)
           0.1887 ( 31)  0.1887 ( 33)  0.1887 ( 34)  0.1362 ( 36)  0.1411 ( 37)
          -0.1018 ( 38) -0.1030 ( 41)  0.1362 ( 42) -0.1030 ( 44)  0.1411 ( 45)
          -0.1018 ( 47) -0.1719 ( 55) -0.1719 ( 56) -0.1719 ( 58) -0.1719 ( 59)
           0.1027 ( 64) -0.1211 ( 65) -0.1211 ( 66)  0.1027 ( 67) -0.1397 ( 68)
          -0.1397 ( 69) -0.1391 ( 94)  0.1429 ( 95)  0.1159 ( 97) -0.1172 ( 98)
          -0.1340 (112) -0.1316 (113)  0.1329 (114)  0.1265 (115)
 CRD 51=  -0.1230 ( 11) -0.1355 ( 87) -0.1580 ( 90)  0.1926 ( 91)  0.1713 (100)
          -0.1350 (107)  0.2053 (108) -0.1749 (116)  0.1757 (117)  0.1157 (119)
          -0.3153 (120) -0.1526 (124)  0.1272 (125) -0.1724 (126)  0.1623 (129)
          -0.1356 (130) -0.2131 (135)  0.2494 (145) -0.1456 (146) -0.1883 (147)
           0.4087 (148)
 CRD 52=  -0.1142 ( 12)  0.1012 ( 16)  0.1012 ( 17) -0.1310 ( 18) -0.1124 ( 19)
          -0.1444 ( 28) -0.1444 ( 31) -0.1444 ( 33) -0.1444 ( 34) -0.1055 ( 36)
          -0.1076 ( 37) -0.1055 ( 42) -0.1076 ( 45) -0.1146 ( 55) -0.1146 ( 56)
          -0.1146 ( 58) -0.1146 ( 59) -0.1070 ( 65) -0.1070 ( 66) -0.1047 ( 68)
          -0.1047 ( 69) -0.1398 ( 88) -0.2256 ( 93) -0.1280 ( 96)  0.1267 ( 99)
           0.1383 (101)  0.2268 (105)  0.2031 (110) -0.2035 (122) -0.2305 (137)
           0.2300 (141) -0.1388 (145)  0.1281 (146)
 CRD 53=   0.1121 (  4)  0.1087 (  6)  0.1136 (  9) -0.1126 ( 38)  0.1123 ( 39)
           0.1113 ( 40) -0.1150 ( 41)  0.1113 ( 43) -0.1150 ( 44)  0.1123 ( 46)
          -0.1126 ( 47) -0.2534 ( 89) -0.2727 ( 93)  0.1420 ( 96) -0.1384 ( 99)
           0.2515 (102)  0.2740 (105)  0.1097 (110) -0.1120 (122) -0.2996 (137)
           0.3008 (141)
 CRD 54=  -0.1490 (  1) -0.1341 ( 11)  0.1040 ( 26)  0.1040 ( 27)  0.1010 ( 51)
           0.1010 ( 53) -0.1685 ( 87)  0.1488 ( 88)  0.1073 ( 90) -0.1250 ( 91)
           0.1639 (100) -0.1533 (101) -0.1991 (108)  0.2845 (111) -0.2755 (117)
           0.2183 (118)  0.2329 (120) -0.2706 (124)  0.1440 (135) -0.1657 (136)
           0.2779 (145) -0.2881 (146)  0.2102 (147) -0.2037 (148)

 THE DETERMINANT OF THE G MATRIX IS 10**(   -17)


                     --------------------
                     INTERNAL COORDINATES
                     --------------------

                 - - ATOMS - -         COORDINATE      COORDINATE
 NO.   TYPE    I  J  K  L  M  N        (BOHR,RAD)       (ANG,DEG)
 ----------------------------------------------------------------
   1 STRETCH   1  6                     3.7794521       2.0000001
   2 STRETCH   1 11                     2.0502601       1.0849510
   3 STRETCH   1  2                     2.6424742       1.3983372
   4 STRETCH   1 12                     2.0486221       1.0840842
   5 STRETCH   1  2                     2.6424742       1.3983372
   6 STRETCH   2 13                     2.0442230       1.0817563
   7 STRETCH   2  3                     2.6437716       1.3990238
   8 STRETCH   2  3                     2.6437716       1.3990238
   9 STRETCH   3 15                     2.0491995       1.0843897
  10 STRETCH   3 14                     2.0509257       1.0853032
  11 STRETCH   3  4                     3.7794522       2.0000001
  12 STRETCH   4  9                     2.8959459       1.5324687
  13 STRETCH   4  5                     2.6414337       1.3977866
  14 STRETCH   4 16                     2.0524581       1.0861141
  15 STRETCH   4  5                     2.6414337       1.3977866
  16 STRETCH   5  6                     2.6499293       1.4022823
  17 STRETCH   5  6                     2.6499293       1.4022823
  18 STRETCH   5 17                     2.0450392       1.0821882
  19 STRETCH   6  7                     2.8395170       1.5026078
  20 STRETCH   6 18                     2.0516248       1.0856732
  21 STRETCH   7  8                     2.4910917       1.3182290
  22 STRETCH   7 19                     2.0491772       1.0843780
  23 STRETCH   8 20                     2.0450129       1.0821743
  24 STRETCH   8  9                     2.8543097       1.5104358
  25 STRETCH   9 10                     2.3141761       1.2246094
  26 BEND      1  6  5                  1.7620781     100.9596392
  27 BEND      1  6  5                  1.7620781     100.9596392
  28 BEND      1  2  3                  2.0910505     119.8083660
  29 BEND      1  6 18                  1.7465451     100.0696656
  30 BEND      1  2 13                  2.0634544     118.2272265
  31 BEND      1  2  3                  2.0910505     119.8083660
  32 BEND      1  6  7                  1.7866150     102.3654972
  33 BEND      1  2  3                  2.0910505     119.8083660
  34 BEND      1  2  3                  2.0910505     119.8083660
  35 BEND      1  2 13                  2.0634544     118.2272265
  36 BEND      2  3 14                  2.0660522     118.3760686
  37 BEND      2  1 11                  2.0642214     118.2711753
  38 BEND      2  1 12                  2.0675538     118.4621066
  39 BEND      2  1  6                  1.8008535     103.1813062
  40 BEND      2  3  4                  1.8152252     104.0047401
  41 BEND      2  3 15                  2.0652748     118.3315274
  42 BEND      2  3 14                  2.0660522     118.3760686
  43 BEND      2  3  4                  1.8152252     104.0047401
  44 BEND      2  3 15                  2.0652748     118.3315274
  45 BEND      2  1 11                  2.0642214     118.2711753
  46 BEND      2  1  6                  1.8008535     103.1813062
  47 BEND      2  1 12                  2.0675538     118.4621066
  48 BEND      3  4  9                  1.7555791     100.5872707
  49 BEND      3  2 13                  2.0624432     118.1692933
  50 BEND      3  2 13                  2.0624432     118.1692933
  51 BEND      3  4  5                  1.7673376     101.2609861
  52 BEND      3  4 16                  1.7513952     100.3475531
  53 BEND      3  4  5                  1.7673376     101.2609861
  54 BEND      4  3 15                  1.6752001      95.9818932
  55 BEND      4  5  6                  2.0527678     117.6149306
  56 BEND      4  5  6                  2.0527678     117.6149306
  57 BEND      4  5 17                  2.0872942     119.5931497
  58 BEND      4  5  6                  2.0527678     117.6149306
  59 BEND      4  5  6                  2.0527678     117.6149306
  60 BEND      4  9 10                  2.1377431     122.4836569
  61 BEND      4  9  8                  1.9984331     114.5017850
  62 BEND      4  3 14                  1.7859962     102.3300452
  63 BEND      4  5 17                  2.0872942     119.5931497
  64 BEND      5  6  7                  2.0300073     116.3108527
  65 BEND      5  6 18                  2.0593979     117.9948083
  66 BEND      5  6 18                  2.0593979     117.9948083
  67 BEND      5  6  7                  2.0300073     116.3108527
  68 BEND      5  4 16                  2.0656610     118.3536573
  69 BEND      5  4 16                  2.0656610     118.3536573
  70 BEND      5  4  9                  2.0576231     117.8931170
  71 BEND      5  4  9                  2.0576231     117.8931170
  72 BEND      6  1 12                  1.6845003      96.5147562
  73 BEND      6  1 11                  1.7920122     102.6747336
  74 BEND      6  7 19                  2.0448203     117.1595732
  75 BEND      6  7  8                  2.1224687     121.6085006
  76 BEND      6  5 17                  2.0872541     119.5908491
  77 BEND      6  5 17                  2.0872541     119.5908491
  78 BEND      7  8  9                  2.1156285     121.2165842
  79 BEND      7  8 20                  2.1317528     122.1404358
  80 BEND      7  6 18                  2.0035945     114.7975064
  81 BEND      8  9 10                  2.1469921     123.0135884
  82 BEND      8  7 19                  2.1158961     121.2319187
  83 BEND      9  8 20                  2.0357197     116.6381463
  84 BEND      9  4 16                  1.9821268     113.5674997
  85 BEND     11  1 12                  1.9699465     112.8696195
  86 BEND     14  3 15                  1.9702263     112.8856538
  87 TORSION   1  6  5 17               1.5239604      87.3165017
  88 TORSION   1  6  5  4              -1.2635997     -72.3989278
  89 TORSION   1  2  3  4               1.1182487      64.0709331
  90 TORSION   1  6  7 19              -1.5600529     -89.3844465
  91 TORSION   1  6  7  8               1.5809959      90.5843945
  92 TORSION   1  2  3 14               3.0841051     176.7062059
  93 TORSION   1  2  3 15              -0.7119436     -40.7913644
  94 TORSION   2  1  6 18               3.1215970     178.8543314
  95 TORSION   2  3  4 16              -3.0920693    -177.1625235
  96 TORSION   2  3  4  5              -0.9643270     -55.2518652
  97 TORSION   2  3  4  9               1.1562323      66.2472316
  98 TORSION   2  1  6  7              -1.0958023     -62.7848445
  99 TORSION   2  1  6  5               1.0039729      57.5234071
 100 TORSION   3  4  5 17              -1.5446617     -88.5025962
 101 TORSION   3  4  5  6               1.2428900      71.2123504
 102 TORSION   3  2  1  6              -1.1339104     -64.9682819
 103 TORSION   3  4  9 10               1.5392876      88.1946805
 104 TORSION   3  4  9  8              -1.5962240     -91.4568973
 105 TORSION   3  2  1 12               0.6994028      40.0728271
 106 TORSION   3  2  1 11              -3.0964811    -177.4152984
 107 TORSION   4  9  8 20              -3.1078206    -178.0650027
 108 TORSION   4  9  8  7               0.0201012       1.1517166
 109 TORSION   4  5  6 18               3.1392325     179.8647751
 110 TORSION   4  3  2 13              -1.6338883     -93.6149010
 111 TORSION   4  5  6  7               0.6531433      37.4223561
 112 TORSION   5  4  3 14              -3.1245682    -179.0245693
 113 TORSION   5  4  3 15               1.1508916      65.9412306
 114 TORSION   5  6  1 11              -3.1245138    -179.0214555
 115 TORSION   5  6  1 12              -1.1129720     -63.7685993
 116 TORSION   5  6  7 19               2.8207641     161.6178768
 117 TORSION   5  6  7  8              -0.3213724     -18.4132823
 118 TORSION   5  4  9  8               0.3042223      17.4306521
 119 TORSION   5  4  9 10              -2.8434515    -162.9177701
 120 TORSION   6  7  8  9              -0.0093547      -0.5359847
 121 TORSION   6  7  8 20               3.1178065     178.6371533
 122 TORSION   6  1  2 13               1.6180040      92.7048000
 123 TORSION   6  5  4 16               3.1347356     179.6071187
 124 TORSION   6  5  4  9              -0.6508496     -37.2909337
 125 TORSION   7  8  9 10              -3.1153740    -178.4977822
 126 TORSION   7  6  5 17              -2.8424819    -162.8622145
 127 TORSION   7  6  1 12               3.0704382     175.9231491
 128 TORSION   7  6  1 11               1.0588964      60.6702929
 129 TORSION   8  7  6 18              -2.8283070    -162.0500548
 130 TORSION   8  9  4 16               2.8314406     162.2295986
 131 TORSION   9  8  7 19               3.1316721     179.4315931
 132 TORSION   9  4  3 14              -1.0040089     -57.5254725
 133 TORSION   9  4  3 15              -3.0117344    -172.5596727
 134 TORSION   9  4  5 17               2.8447841     162.9941198
 135 TORSION  10  9  8 20               0.0398895       2.2854984
 136 TORSION  10  9  4 16              -0.3162331     -18.1188236
 137 TORSION  11  1  2 13              -0.3445667     -19.7422164
 138 TORSION  11  1  6 18              -1.0068897     -57.6905311
 139 TORSION  12  1  2 13              -2.8318681    -162.2540909
 140 TORSION  12  1  6 18               1.0046521      57.5623251
 141 TORSION  13  2  3 14               0.3319681      19.0203718
 142 TORSION  13  2  3 15               2.8191047     161.5228015
 143 TORSION  14  3  4 16               1.0308748      59.0647725
 144 TORSION  15  3  4 16              -0.9768508     -55.9694277
 145 TORSION  16  4  5 17               0.3471839      19.8921721
 146 TORSION  17  5  6 18              -0.3563927     -20.4197955
 147 TORSION  18  6  7 19               0.3138295      17.9811043
 148 TORSION  19  7  8 20              -0.0243520      -1.3952688

     ------------------------------------------
     THE POINT GROUP IS C1 , NAXIS= 0, ORDER= 1
     ------------------------------------------

     DIMENSIONS OF THE SYMMETRY SUBSPACES ARE
 A   =   60

 ..... DONE SETTING UP THE RUN .....
 STEP CPU TIME =     0.09 TOTAL CPU TIME =          0.1 (      0.0 MIN)
 TOTAL WALL CLOCK TIME=          0.2 SECONDS, CPU UTILIZATION IS    39.13%


          -----------------------------
          STATIONARY POINT LOCATION RUN
          -----------------------------

 OBTAINING INITIAL HESSIAN, HESS=CALC    

     ---------------------------------
     HESSIAN MATRIX CONTROL PARAMETERS
     ---------------------------------
     METHOD=ANALYTIC   NVIB  =       2   VIBSIZ= 0.01000
     RDHESS=       F   PURIFY=       F   PRTIFC=       F
     VIBANL=       F   DECOMP=       F   PROJCT=       F
     SCLFAC= 1.00000   PRTSCN=       F   NPRT  =       0
     PULCOR=       F   NPUN  =       0   REDOVB=       T
     HSSTYP=GENERAL 
 Old integral subroutine is used

     ------------------------------
     CPHF RESPONSE SOLUTION OPTIONS
     ------------------------------
     POLAR  =       F     NWORD  =       0
     CPHF   =AO      

          ********************
          1 ELECTRON INTEGRALS
          ********************
 ...... END OF ONE-ELECTRON INTEGRALS ......
 STEP CPU TIME =     0.02 TOTAL CPU TIME =          0.1 (      0.0 MIN)
 TOTAL WALL CLOCK TIME=          0.2 SECONDS, CPU UTILIZATION IS    44.00%

          -------------
          GUESS OPTIONS
          -------------
          GUESS =HUCKEL            NORB  =       0          NORDER=       0
          MIX   =       F          PRTMO =       F          PUNMO =       F
          TOLZ  = 1.0E-08          TOLE  = 1.0E-05
          SYMDEN=       F          PURIFY=       F

 INITIAL GUESS ORBITALS GENERATED BY HUCKEL   ROUTINE.
 HUCKEL GUESS REQUIRES     53820 WORDS.

 SYMMETRIES FOR INITIAL GUESS ORBITALS FOLLOW.   BOTH SET(S).
    36 ORBITALS ARE OCCUPIED (   10 CORE ORBITALS).
    11=A       12=A       13=A       14=A       15=A       16=A       17=A   
    18=A       19=A       20=A       21=A       22=A       23=A       24=A   
    25=A       26=A       27=A       28=A       29=A       30=A       31=A   
    32=A       33=A       34=A       35=A       36=A       37=A       38=A   
    39=A       40=A       41=A       42=A       43=A       44=A       45=A   
    46=A   
 ...... END OF INITIAL ORBITAL SELECTION ......
 STEP CPU TIME =     0.02 TOTAL CPU TIME =          0.1 (      0.0 MIN)
 TOTAL WALL CLOCK TIME=          0.3 SECONDS, CPU UTILIZATION IS    48.15%

                    ----------------------
                    AO INTEGRAL TECHNOLOGY
                    ----------------------
     S,P,L SHELL ROTATED AXIS INTEGRALS, REPROGRAMMED BY
        KAZUYA ISHIMURA (IMS) AND JOSE SIERRA (SYNSTAR).
     S,P,D,L SHELL ROTATED AXIS INTEGRALS PROGRAMMED BY
        KAZUYA ISHIMURA (INSTITUTE FOR MOLECULAR SCIENCE).
     S,P,D,F,G SHELL TO TOTAL QUARTET ANGULAR MOMENTUM SUM 5,
        ERIC PROGRAM BY GRAHAM FLETCHER (ELORET AND NASA ADVANCED
        SUPERCOMPUTING DIVISION, AMES RESEARCH CENTER).
     S,P,D,F,G,L SHELL GENERAL RYS QUADRATURE PROGRAMMED BY
        MICHEL DUPUIS (PACIFIC NORTHWEST NATIONAL LABORATORY).

          --------------------
          2 ELECTRON INTEGRALS
          --------------------

 THE -PK- OPTION IS OFF, THE INTEGRALS ARE NOT IN SUPERMATRIX FORM.
 STORING   15000 INTEGRALS/RECORD ON DISK, USING 12 BYTES/INTEGRAL.
 TWO ELECTRON INTEGRAL EVALUATION REQUIRES   89821 WORDS OF MEMORY.
 SCHWARZ INEQUALITY OVERHEAD:      1797 INTEGRALS, T=        0.00
 II,JST,KST,LST =  1  1  1  1 NREC =         1 INTLOC =    1
 II,JST,KST,LST =  2  1  1  1 NREC =         1 INTLOC =    2
 II,JST,KST,LST =  3  1  1  1 NREC =         1 INTLOC =   34
 II,JST,KST,LST =  4  1  1  1 NREC =         1 INTLOC =  144
 II,JST,KST,LST =  5  1  1  1 NREC =         1 INTLOC = 1366
 II,JST,KST,LST =  6  1  1  1 NREC =         1 INTLOC = 1962
 II,JST,KST,LST =  7  1  1  1 NREC =         1 INTLOC = 6861
 II,JST,KST,LST =  8  1  1  1 NREC =         1 INTLOC = 8479
 II,JST,KST,LST =  9  1  1  1 NREC =         2 INTLOC = 5913
 II,JST,KST,LST = 10  1  1  1 NREC =         2 INTLOC = 9713
 II,JST,KST,LST = 11  1  1  1 NREC =         4 INTLOC = 5096
 II,JST,KST,LST = 12  1  1  1 NREC =         4 INTLOC =12224
 II,JST,KST,LST = 13  1  1  1 NREC =         7 INTLOC =12369
 II,JST,KST,LST = 14  1  1  1 NREC =         8 INTLOC = 9006
 II,JST,KST,LST = 15  1  1  1 NREC =        13 INTLOC = 6781
 II,JST,KST,LST = 16  1  1  1 NREC =        14 INTLOC = 9993
 II,JST,KST,LST = 17  1  1  1 NREC =        22 INTLOC =   52
 II,JST,KST,LST = 18  1  1  1 NREC =        23 INTLOC =11572
 II,JST,KST,LST = 19  1  1  1 NREC =        34 INTLOC = 5252
 II,JST,KST,LST = 20  1  1  1 NREC =        36 INTLOC = 2907
 II,JST,KST,LST = 21  1  1  1 NREC =        48 INTLOC = 7922
 II,JST,KST,LST = 22  1  1  1 NREC =        52 INTLOC = 6458
 II,JST,KST,LST = 23  1  1  1 NREC =        56 INTLOC = 8130
 II,JST,KST,LST = 24  1  1  1 NREC =        61 INTLOC = 2827
 II,JST,KST,LST = 25  1  1  1 NREC =        66 INTLOC =  962
 II,JST,KST,LST = 26  1  1  1 NREC =        71 INTLOC = 2628
 II,JST,KST,LST = 27  1  1  1 NREC =        76 INTLOC =10032
 II,JST,KST,LST = 28  1  1  1 NREC =        82 INTLOC = 5795
 II,JST,KST,LST = 29  1  1  1 NREC =        88 INTLOC = 3684
 II,JST,KST,LST = 30  1  1  1 NREC =        94 INTLOC = 7542
 SCHWARZ INEQUALITY TEST SKIPPED       23095 INTEGRAL BLOCKS.
 TOTAL NUMBER OF NONZERO TWO-ELECTRON INTEGRALS =             1502394
        101 INTEGRAL RECORDS WERE STORED ON DISK FILE  8.
  ...... END OF TWO-ELECTRON INTEGRALS .....
 STEP CPU TIME =     0.28 TOTAL CPU TIME =          0.4 (      0.0 MIN)
 TOTAL WALL CLOCK TIME=          0.6 SECONDS, CPU UTILIZATION IS    74.55%

          --------------------------
                 RHF SCF CALCULATION
          --------------------------

     NUCLEAR ENERGY =       513.0612456767
     MAXIT =   30     NPUNCH=    2
     EXTRAP=T  DAMP=F  SHIFT=F  RSTRCT=F  DIIS=F  DEM=F  SOSCF=T
     DENSITY MATRIX CONV=  1.00E-05
     SOSCF WILL OPTIMIZE     864 ORBITAL ROTATIONS, SOGTOL=   0.250
     MEMORY REQUIRED FOR RHF ITERS=     59496 WORDS.

 ITER EX DEM     TOTAL ENERGY        E CHANGE  DENSITY CHANGE     ORB. GRAD
   1  0  0     -415.5512711681  -415.5512711681   0.523175558   0.000000000
          ---------------START SECOND ORDER SCF---------------
   2  1  0     -416.0530772684    -0.5018061003   0.311032914   0.060801112
   3  2  0     -416.0825198134    -0.0294425450   0.143342079   0.048058759
   4  3  0     -416.1130951552    -0.0305753418   0.021605237   0.006080722
   5  4  0     -416.1137994162    -0.0007042609   0.005059986   0.002106848
   6  5  0     -416.1138856229    -0.0000862067   0.001995267   0.000725201
   7  6  0     -416.1138970028    -0.0000113800   0.000794789   0.000208399
   8  7  0     -416.1138984601    -0.0000014572   0.000242471   0.000067793
   9  8  0     -416.1138986297    -0.0000001697   0.000149862   0.000019784
  10  9  0     -416.1138986625    -0.0000000327   0.000063490   0.000007505
  11 10  0     -416.1138986676    -0.0000000051   0.000027767   0.000002804
  12 11  0     -416.1138986684    -0.0000000008   0.000008117   0.000001234
  13 12  0     -416.1138986685    -0.0000000001   0.000004155   0.000000487

          -----------------
          DENSITY CONVERGED
          -----------------
     TIME TO FORM FOCK OPERATORS=       0.3 SECONDS (       0.0 SEC/ITER)
     TIME TO SOLVE SCF EQUATIONS=       0.0 SECONDS (       0.0 SEC/ITER)

 FINAL RHF ENERGY IS     -416.1138986685 AFTER  13 ITERATIONS

          ------------
          EIGENVECTORS
          ------------

                      1          2          3          4          5
                  -20.2570   -11.1154   -11.0555   -11.0482   -11.0465
                     A          A          A          A          A   
    1  C  1  S   -0.000000   0.000044  -0.027225  -0.013750  -0.004175
    2  C  1  S    0.000005   0.000025  -0.003619  -0.000390  -0.000082
    3  C  1  X   -0.000000   0.000028  -0.002416  -0.000018  -0.000020
    4  C  1  Y    0.000002   0.000031  -0.000163  -0.000046   0.000021
    5  C  1  Z    0.000002   0.000005  -0.000548  -0.000120  -0.000029
    6  C  2  S    0.000001  -0.000215  -0.000907   0.003923  -0.000208
    7  C  2  S   -0.000023  -0.000025   0.000179  -0.006648  -0.001107
    8  C  2  X   -0.000002  -0.000155  -0.000015   0.000034  -0.000037
    9  C  2  Y   -0.000002  -0.000058  -0.000232  -0.002059  -0.000313
   10  C  2  Z   -0.000000  -0.000017  -0.000043  -0.003995  -0.000594
   11  C  3  S   -0.000010  -0.000504   0.000240   0.978121   0.165536
   12  C  3  S    0.000050   0.000008   0.000079   0.035960   0.003421
   13  C  3  X    0.000032  -0.000228  -0.000012  -0.000688  -0.002608
   14  C  3  Y    0.000049  -0.000169  -0.000024  -0.000435  -0.000151
   15  C  3  Z   -0.000034   0.000256  -0.000010  -0.000655  -0.000690
   16  C  4  S   -0.000024  -0.001728  -0.004273  -0.164996   0.974170
   17  C  4  S    0.000268  -0.005444  -0.000072  -0.008529   0.034776
   18  C  4  X   -0.000006  -0.001391   0.000040   0.002159   0.001688
   19  C  4  Y    0.000443  -0.002682   0.000042   0.000204  -0.000830
   20  C  4  Z    0.000178   0.002692   0.000162   0.000556   0.000300
   21  C  5  S    0.000004  -0.000235   0.003972  -0.002342   0.005300
   22  C  5  S    0.000038   0.000097  -0.006869   0.001107  -0.006818
   23  C  5  X   -0.000045  -0.000008  -0.000311  -0.000091   0.001024
   24  C  5  Y    0.000001   0.000004   0.001858   0.000855  -0.004313
   25  C  5  Z    0.000055  -0.000038   0.004153   0.000121  -0.000420
   26  C  6  S    0.000003  -0.000305   0.991652  -0.001298   0.002935
   27  C  6  S    0.000006  -0.000092   0.036171   0.000022   0.000740
   28  C  6  X    0.000011  -0.000020   0.001164  -0.000039   0.000222
   29  C  6  Y   -0.000041  -0.000120   0.000600   0.000025   0.000083
   30  C  6  Z   -0.000005   0.000003   0.000912   0.000036  -0.000246
   31  C  7  S    0.000005  -0.000259  -0.011840   0.004412  -0.090479
   32  C  7  S    0.000055   0.000119  -0.006462   0.000189  -0.003350
   33  C  7  X    0.000028  -0.000039   0.001387  -0.000034   0.000067
   34  C  7  Y    0.000036  -0.000017   0.002481   0.000029  -0.000218
   35  C  7  Z   -0.000060   0.000084  -0.003246   0.000037  -0.000169
   36  C  8  S   -0.000025  -0.001002  -0.000891   0.000447  -0.002977
   37  C  8  S    0.000271  -0.005699   0.000263  -0.000015   0.000780
   38  C  8  X    0.000063   0.001252  -0.000013  -0.000041   0.000006
   39  C  8  Y    0.000506  -0.001994  -0.000100   0.000032  -0.000390
   40  C  8  Z   -0.000062  -0.003387   0.000090   0.000021  -0.000054
   41  C  9  S    0.000548   0.992569   0.000327   0.000123   0.002736
   42  C  9  S   -0.007181   0.032713  -0.000014   0.000928  -0.005578
   43  C  9  X   -0.000072  -0.000003   0.000002  -0.000105   0.001254
   44  C  9  Y   -0.006320   0.000387   0.000142  -0.000501   0.002544
   45  C  9  Z   -0.000827  -0.000083   0.000072   0.000604  -0.002946
   46  O 10  S    0.994267   0.000164   0.000006  -0.000010  -0.000023
   47  O 10  S    0.025983  -0.005779  -0.000058   0.000035   0.000256
   48  O 10  X   -0.000067   0.000024  -0.000002  -0.000032  -0.000053
   49  O 10  Y   -0.005552   0.001708   0.000037  -0.000023  -0.000161
   50  O 10  Z   -0.000729   0.000242  -0.000001  -0.000026   0.000154
   51  H 11  S   -0.000000   0.000004   0.000297  -0.000008   0.000021
   52  H 12  S   -0.000001  -0.000001   0.000250   0.000045   0.000040
   53  H 13  S    0.000023  -0.000135   0.000036   0.000047   0.000056
   54  H 14  S   -0.000025  -0.000240  -0.000002  -0.006798  -0.001039
   55  H 15  S    0.000015  -0.000142   0.000006  -0.006794  -0.001099
   56  H 16  S   -0.000175  -0.000012  -0.000083   0.001288  -0.006768
   57  H 17  S   -0.000021  -0.000042   0.000079   0.000060   0.000085
   58  H 18  S   -0.000016  -0.000027  -0.006912   0.000021  -0.000141
   59  H 19  S   -0.000021  -0.000038   0.000159  -0.000017   0.000567
   60  H 20  S   -0.000192   0.000009  -0.000042   0.000012  -0.000071

                      6          7          8          9         10
                  -11.0462   -11.0458   -11.0237   -11.0193   -11.0105
                     A          A          A          A          A   
    1  C  1  S   -0.083325   0.988200  -0.000197   0.001734  -0.003408
    2  C  1  S   -0.003026   0.035856   0.000049   0.000061  -0.007219
    3  C  1  X   -0.000092  -0.001418   0.000013  -0.000109   0.001348
    4  C  1  Y   -0.000249   0.000512   0.000050  -0.000201  -0.004394
    5  C  1  Z    0.000200  -0.000070  -0.000003  -0.000395  -0.000472
    6  C  2  S   -0.001278   0.004123  -0.001311  -0.003621   0.992095
    7  C  2  S    0.000410  -0.006924  -0.000080  -0.000093   0.036743
    8  C  2  X   -0.000113  -0.001299  -0.000168  -0.000153   0.001950
    9  C  2  Y   -0.000387   0.004251   0.000003   0.000010  -0.000229
   10  C  2  Z   -0.000042   0.000394  -0.000052  -0.000057   0.000892
   11  C  3  S    0.009551   0.015179  -0.000186   0.001557  -0.003103
   12  C  3  S    0.000139   0.000646   0.000053   0.000060  -0.007209
   13  C  3  X   -0.000188  -0.000110   0.000029  -0.000218   0.000014
   14  C  3  Y   -0.000031   0.000103  -0.000010   0.000389   0.002081
   15  C  3  Z   -0.000088  -0.000037  -0.000038   0.000031   0.004128
   16  C  4  S    0.089532   0.009255   0.001237  -0.004736   0.000985
   17  C  4  S    0.003161   0.000372   0.000251  -0.007288   0.000004
   18  C  4  X    0.000091   0.000072   0.000032  -0.001115   0.000026
   19  C  4  Y   -0.000020  -0.000036   0.000018   0.004439   0.000147
   20  C  4  Z    0.000174   0.000027   0.000033   0.000394   0.000305
   21  C  5  S   -0.000581  -0.001585  -0.006787   0.992070   0.003672
   22  C  5  S   -0.000568  -0.000324  -0.000349   0.036679   0.000136
   23  C  5  X    0.000014   0.000122  -0.000059  -0.001695   0.000145
   24  C  5  Y   -0.000437  -0.000047  -0.000135   0.000547  -0.000015
   25  C  5  Z    0.000002   0.000038   0.000154  -0.001153   0.000058
   26  C  6  S    0.010759   0.029099   0.000687  -0.003158   0.000873
   27  C  6  S   -0.005158  -0.002019   0.000420  -0.007168  -0.000017
   28  C  6  X   -0.001692   0.002314   0.000098   0.000209   0.000143
   29  C  6  Y   -0.002587  -0.000081   0.000006  -0.001827  -0.000336
   30  C  6  Z    0.002843   0.000854  -0.000121  -0.004192  -0.000029
   31  C  7  S    0.984362   0.082422  -0.019881   0.001180   0.000921
   32  C  7  S    0.035662   0.002806  -0.008929   0.000144  -0.000061
   33  C  7  X    0.000008   0.000106  -0.000215  -0.000067   0.000196
   34  C  7  Y    0.001597   0.000126  -0.004663  -0.000119  -0.000073
   35  C  7  Z    0.000221   0.000016  -0.000529  -0.000096  -0.000038
   36  C  8  S    0.020130   0.001844   0.991941   0.006873   0.001386
   37  C  8  S   -0.007306  -0.000548   0.036535   0.000176   0.000044
   38  C  8  X    0.000197  -0.000003  -0.000088  -0.000000   0.000118
   39  C  8  Y    0.004502   0.000331  -0.001877   0.000090   0.000035
   40  C  8  Z    0.000507   0.000038  -0.000038  -0.000166  -0.000030
   41  C  9  S    0.000591   0.000021   0.001991   0.000285   0.000270
   42  C  9  S   -0.000396  -0.000037  -0.005892   0.000148  -0.000061
   43  C  9  X    0.000133  -0.000001  -0.001321  -0.000105   0.000145
   44  C  9  Y    0.000394   0.000025   0.001878   0.000070   0.000105
   45  C  9  Z   -0.000287  -0.000037   0.003501   0.000064   0.000081
   46  O 10  S    0.000010   0.000001  -0.000022   0.000009   0.000001
   47  O 10  S   -0.000088  -0.000003   0.000251  -0.000082  -0.000023
   48  O 10  X   -0.000012  -0.000002   0.000068   0.000025  -0.000032
   49  O 10  Y    0.000042   0.000002  -0.000115   0.000043   0.000012
   50  O 10  Z    0.000040   0.000003  -0.000176  -0.000008  -0.000011
   51  H 11  S    0.000453  -0.006881   0.000009  -0.000174   0.000106
   52  H 12  S    0.000439  -0.006876   0.000005  -0.000204   0.000049
   53  H 13  S   -0.000133   0.000044  -0.000254  -0.000001  -0.006966
   54  H 14  S   -0.000045  -0.000207   0.000001  -0.000171   0.000106
   55  H 15  S   -0.000060  -0.000152   0.000001  -0.000190   0.000043
   56  H 16  S   -0.000677  -0.000074  -0.000092   0.000121  -0.000139
   57  H 17  S   -0.000069   0.000078  -0.000011  -0.006906  -0.000035
   58  H 18  S   -0.000052  -0.000067  -0.000097   0.000107  -0.000143
   59  H 19  S   -0.006791  -0.000528   0.000270  -0.000098  -0.000027
   60  H 20  S   -0.000001  -0.000001  -0.006869  -0.000103  -0.000033

                     11         12         13         14         15
                   -1.3094    -1.0921    -1.0155    -0.9721    -0.9331
                     A          A          A          A          A   
    1  C  1  S   -0.000817  -0.058617  -0.101255   0.066134  -0.080748
    2  C  1  S    0.001960   0.155351   0.272717  -0.181928   0.231124
    3  C  1  X    0.000259   0.008571  -0.037159   0.021606   0.022625
    4  C  1  Y    0.000647   0.030667   0.068207  -0.036253  -0.015108
    5  C  1  Z    0.000165   0.010150   0.013404   0.007094  -0.001939
    6  C  2  S   -0.001701  -0.063786  -0.144391   0.070722   0.012304
    7  C  2  S    0.004001   0.159685   0.373534  -0.188021  -0.033895
    8  C  2  X    0.001133   0.024360   0.025423  -0.012642   0.014649
    9  C  2  Y    0.000745  -0.013993  -0.022182   0.029698  -0.082724
   10  C  2  Z    0.000959   0.022724   0.052544   0.002816  -0.056070
   11  C  3  S   -0.003064  -0.053930  -0.115741   0.016985   0.088184
   12  C  3  S    0.007408   0.142997   0.313444  -0.043309  -0.251215
   13  C  3  X    0.002366   0.015127  -0.007732   0.027835  -0.007240
   14  C  3  Y    0.000778  -0.017494  -0.039411   0.018216  -0.011056
   15  C  3  Z   -0.000557  -0.023354  -0.064509   0.044249   0.004064
   16  C  4  S   -0.021749  -0.088387  -0.006403  -0.125029   0.086880
   17  C  4  S    0.054417   0.231909   0.020055   0.345569  -0.249166
   18  C  4  X    0.009635   0.014087  -0.032908   0.030721   0.002749
   19  C  4  Y    0.017437  -0.048098   0.001385  -0.068574  -0.048505
   20  C  4  Z   -0.018842  -0.027538   0.008856   0.008244   0.020589
   21  C  5  S   -0.005608  -0.109385   0.013356  -0.128572  -0.046063
[...]
 18   H            X -0.04465426  0.02006996 -0.02764372 -0.04343156 -0.01117376
                   Y -0.07571742  0.00820915  0.02216969 -0.05514821 -0.01317109
                   Z  0.01878586 -0.00241246 -0.01154296  0.06464907  0.01052274
 19   H            X -0.01849469  0.00172605  0.00702733 -0.07710686 -0.01812737
                   Y -0.05554410  0.00636358  0.01712376 -0.07301750 -0.01286572
                   Z  0.02798596 -0.00105493 -0.00540377  0.14379449  0.03180538
 20   H            X  0.00236235 -0.00107551  0.00125400 -0.05044764 -0.02873881
                   Y  0.00598425  0.00232384 -0.00344428 -0.00502661  0.05477323
                   Z -0.01570066  0.00262726  0.01179922  0.12874364  0.07633516

 TRANS. SAYVETZ    X -0.00000119 -0.00000104 -0.00000142  0.00000023 -0.00000153
                   Y -0.00000077 -0.00000046 -0.00000171 -0.00000107  0.00000130
                   Z  0.00000189  0.00000147 -0.00000030  0.00000035 -0.00000123
               TOTAL  0.00000236  0.00000186  0.00000225  0.00000115  0.00000236

   ROT. SAYVETZ    X  0.00005372 -0.00000888 -0.00009354  0.00000934  0.00002156
                   Y -0.00001450  0.00001972 -0.00005404  0.00000040  0.00000329
                   Z  0.00010634 -0.00000338  0.00005605 -0.00001522 -0.00002803
               TOTAL  0.00012002  0.00002189  0.00012170  0.00001786  0.00003551

                           51          52          53          54          55
       FREQUENCY:      3621.90     3625.39     3681.77     3686.40     3704.43  
        SYMMETRY:         A           A           A           A           A   
    REDUCED MASS:      1.06357     1.06536     1.09213     1.09370     1.09092
    IR INTENSITY:      0.18787     0.01800     0.19974     0.07202     0.57242

  1   C            X  0.00985103 -0.01173702  0.00024263 -0.00056929 -0.00020863
                   Y  0.04464740 -0.04940666  0.00306432 -0.00058212 -0.00033139
                   Z  0.00712560 -0.00796592  0.00018286 -0.00051470 -0.00012624
  2   C            X  0.00150652 -0.00125314  0.00032006 -0.00009882 -0.00007548
                   Y  0.00336879  0.00520670 -0.00248217  0.00098135  0.00112767
                   Z -0.00377749  0.00423452  0.00337717 -0.00163770 -0.00155010
  3   C            X  0.02507895  0.02393666  0.00146492 -0.00007097 -0.00007498
                   Y -0.01790171 -0.01638999 -0.00097383  0.00021484 -0.00002387
                   Z -0.04036688 -0.03715838 -0.00209263  0.00164030  0.00051710
  4   C            X -0.00035929 -0.00077438  0.00264522  0.00106041  0.00013443
                   Y  0.00059289  0.00043579 -0.03049199 -0.01604414 -0.00129806
                   Z  0.00250001  0.00019163 -0.06698813 -0.03294510 -0.00212874
  5   C            X  0.00020360  0.00002352 -0.00266166  0.00010866  0.00021463
                   Y  0.00158172 -0.00031481 -0.01229263  0.00957957  0.00429416
                   Z -0.00219554 -0.00003565  0.01930689 -0.00493030 -0.00436834
  6   C            X  0.00036579  0.00050651 -0.00805810  0.01986682  0.00242356
                   Y -0.00236378  0.00070702  0.03052925 -0.07106353 -0.01290613
                   Z  0.00033350  0.00047763  0.00238911 -0.00743787  0.00084275
  7   C            X -0.00019069  0.00014872  0.00124000 -0.00321210  0.02217485
                   Y  0.00008786  0.00013173 -0.00311931  0.00748930 -0.03017380
                   Z -0.00005421  0.00000024 -0.00364137  0.00902223 -0.05702347
  8   C            X  0.00013043  0.00001376 -0.00077267  0.00221785 -0.01854156
                   Y  0.00012253 -0.00006669 -0.00054440  0.00238833 -0.02414776
                   Z -0.00014767  0.00004462  0.00127702 -0.00400425  0.03352722
  9   C            X -0.00022455 -0.00014003 -0.00067409 -0.00046153  0.00074046
                   Y  0.00004105 -0.00003671 -0.00071428 -0.00043543  0.00000069
                   Z -0.00007608 -0.00001451  0.00137453  0.00106000 -0.00163785
 10   O            X  0.00003546  0.00001185  0.00002719  0.00004055 -0.00009393
                   Y  0.00002122  0.00001225  0.00006657  0.00010808 -0.00010913
                   Z -0.00000058  0.00000555 -0.00009763 -0.00011580  0.00018202
 11   H            X -0.00487313  0.00471329  0.00110805  0.00060607 -0.00011665
                   Y -0.17647034  0.19393002 -0.00916532  0.00562838  0.00091469
                   Z -0.41151119  0.45246505 -0.01963981  0.01154707  0.00166055
 12   H            X -0.12496784  0.13940638 -0.00704455  0.00164222  0.00177839
                   Y -0.30524946  0.33674895 -0.01947941  0.00487502  0.00235638
                   Z  0.33189220 -0.36472535  0.02027908 -0.00434880 -0.00205201
 13   H            X  0.00208946 -0.00060222 -0.00056519  0.00020931  0.00031960
                   Y -0.05978303  0.00689809  0.02580321 -0.01174003 -0.01228915
                   Z  0.08450374 -0.00383407 -0.03618552  0.01669284  0.01718613
 14   H            X -0.13844760 -0.12655378 -0.00647722 -0.00025543  0.00028833
                   Y  0.46460190  0.42659415  0.02318407 -0.00377361 -0.00109521
                   Z  0.02183518  0.01996056  0.00205624 -0.00039992 -0.00027667
 15   H            X -0.15605368 -0.14562924 -0.00795764  0.00373057  0.00107446
                   Y -0.27601600 -0.25394554 -0.01335575  0.00755377  0.00212361
                   Z  0.40810142  0.37597284  0.02160907 -0.01119304 -0.00330783
 16   H            X -0.00015415  0.00097031 -0.01391837 -0.00744318 -0.00069988
                   Y -0.01134627  0.00039197  0.33805530  0.16787587  0.01011117
                   Z -0.02648155  0.00166682  0.76111295  0.37571505  0.02347617
 17   H            X -0.00251201  0.00011891  0.02007925 -0.00816159 -0.00426043
                   Y -0.01978952  0.00127552  0.16640830 -0.07026762 -0.04344896
                   Z  0.02640632 -0.00138633 -0.22287765  0.09133540  0.05678144
 18   H            X -0.00848635 -0.00064141  0.10128615 -0.23510841 -0.03895193
                   Y  0.02640867 -0.00111798 -0.34362016  0.80048775  0.13687730
                   Z  0.00165540 -0.00045520 -0.02854510  0.06830837  0.00977895
 19   H            X  0.00066816  0.00008817 -0.01759644  0.04356677 -0.25076199
                   Y -0.00054390 -0.00018701  0.02548951 -0.06330263  0.34641771
                   Z -0.00157922 -0.00018508  0.04699570 -0.11533071  0.64616171
 20   H            X -0.00077887  0.00024560  0.00511614 -0.02376745  0.21200542
                   Y -0.00145759  0.00045610  0.00833851 -0.03567667  0.31535407
                   Z  0.00167688 -0.00060449 -0.00965634  0.04277783 -0.37190227

 TRANS. SAYVETZ    X  0.00000045  0.00000007  0.00000017 -0.00000073 -0.00000059
                   Y  0.00000071  0.00000065  0.00000052 -0.00000000 -0.00000006
                   Z  0.00000029  0.00000094  0.00000008  0.00000097 -0.00000037
               TOTAL  0.00000089  0.00000114  0.00000055  0.00000121  0.00000070

   ROT. SAYVETZ    X  0.00000522  0.00000630 -0.00000185 -0.00000552 -0.00000239
                   Y -0.00002324 -0.00000765  0.00002675  0.00001783 -0.00000309
                   Z -0.00002589  0.00000878  0.00000442 -0.00004771 -0.00000648
               TOTAL  0.00003518  0.00001324  0.00002717  0.00005124  0.00000757

                           56          57          58          59          60
       FREQUENCY:      3715.13     3721.58     3735.88     3764.12     3765.89  
        SYMMETRY:         A           A           A           A           A   
    REDUCED MASS:      1.09784     1.09777     1.10632     1.11614     1.11659
    IR INTENSITY:      0.72187     0.05342     0.04582     0.02052     0.03306

  1   C            X -0.00061879  0.00116281 -0.00008520  0.00891542  0.01142451
                   Y -0.00908962  0.00386853 -0.00020145  0.00791999  0.00893781
                   Z  0.00505735 -0.00481809  0.00008760 -0.05639034 -0.07254264
  2   C            X -0.00290845  0.00250124 -0.00011700 -0.00005603 -0.00083150
                   Y  0.04130435 -0.02497949  0.00055442  0.00008200  0.00565612
                   Z -0.05850448  0.03561493 -0.00078701  0.00186154 -0.00804306
  3   C            X -0.00196198  0.00121318 -0.00007555 -0.00000499 -0.00026953
                   Y -0.00265427  0.00384891 -0.00019789 -0.06729698  0.05239896
                   Z  0.00984411 -0.00494827  0.00013959  0.03119736 -0.02328101
  4   C            X  0.00138173  0.00105554 -0.00028145 -0.00009929  0.00010576
                   Y -0.00769558 -0.00910068  0.00121374  0.00058139 -0.00016937
                   Z -0.01078381 -0.01245238  0.00218008  0.00031910  0.00037172
  5   C            X  0.00222261  0.00235987 -0.00029700 -0.00000546  0.00013257
                   Y  0.02433108  0.04149948 -0.00395981  0.00006877 -0.00108973
                   Z -0.03287002 -0.05624168  0.00540505 -0.00020872  0.00150330
  6   C            X -0.00338591 -0.00440905  0.00044494 -0.00016467  0.00012518
                   Y  0.01424747  0.01572456 -0.00538269  0.00056506 -0.00015522
                   Z  0.00410645  0.00475389  0.00052427  0.00037456  0.00043424
  7   C            X -0.00034194  0.00040985  0.01450724 -0.00012569 -0.00013808
                   Y -0.00045414 -0.00202116 -0.02976223  0.00002303  0.00000475
                   Z  0.00072878 -0.00126061 -0.03960763  0.00000019 -0.00003227
  8   C            X  0.00176076  0.00262342  0.02759239 -0.00007866 -0.00001475
                   Y  0.00269879  0.00462653  0.04915749 -0.00008076 -0.00006258
                   Z -0.00284171 -0.00455470 -0.04657168  0.00005604  0.00007880
  9   C            X -0.00019353 -0.00015808 -0.00072103  0.00013832 -0.00011967
                   Y -0.00033386 -0.00046679  0.00112659 -0.00001205  0.00001040
                   Z  0.00040443  0.00050944  0.00186722  0.00006047 -0.00003682
 10   O            X  0.00003032  0.00001161  0.00006037 -0.00000496  0.00000858
                   Y  0.00013408  0.00011708 -0.00029326  0.00002827 -0.00002217
                   Z -0.00004529 -0.00003655 -0.00019216 -0.00001089  0.00000679
 11   H            X -0.00322717  0.00048401  0.00038775  0.00566375  0.00682195
                   Y  0.00126374  0.00815373  0.00058192  0.16763409  0.21580676
                   Z -0.00023267  0.02012055  0.00084081  0.38303942  0.49473726
 12   H            X  0.02538635 -0.01678133  0.00039333 -0.10977124 -0.13781590
                   Y  0.05720782 -0.03413846  0.00117486 -0.26197886 -0.33157950
                   Z -0.06379786  0.03797801 -0.00112726  0.28068876  0.35424771
 13   H            X  0.01228882 -0.00810199  0.00010743  0.00017990  0.00393333
                   Y -0.46399741  0.28219892 -0.00619178  0.00635229 -0.06715199
                   Z  0.65275464 -0.39723220  0.00869928 -0.01635497  0.09407056
 14   H            X -0.00413185  0.00694740 -0.00036037 -0.15701556  0.12154733
                   Y  0.00408898 -0.02319556  0.00130078  0.52018722 -0.40450062
                   Z -0.00158679 -0.00066568  0.00006197  0.02785949 -0.02126881
 15   H            X  0.02755786 -0.01793607  0.00093139  0.15698028 -0.11902111
                   Y  0.04874490 -0.02948927  0.00127820  0.26854876 -0.20371991
                   Z -0.06911932  0.04095896 -0.00183803 -0.39952573  0.30440551
 16   H            X -0.00439733 -0.00363250  0.00042825  0.00054267 -0.00035112
                   Y  0.05532720  0.06367005 -0.00941940 -0.00176681 -0.00156385
                   Z  0.12041808  0.13993863 -0.02059605 -0.00526132 -0.00235683
 17   H            X -0.03038260 -0.05079796  0.00440873 -0.00014550  0.00125945
                   Y -0.26904284 -0.46293688  0.04247159 -0.00119588  0.01104988
                   Z  0.35946963  0.61885725 -0.05642121  0.00165083 -0.01476447
 18   H            X  0.04105554  0.04717162 -0.01357592  0.00140392 -0.00102074
                   Y -0.14667330 -0.16302943  0.05016906 -0.00619841  0.00128915
                   Z -0.01449326 -0.01550715  0.00353823 -0.00024841  0.00058763
 19   H            X  0.00272284 -0.00693991 -0.17077910  0.00018969  0.00000946
                   Y -0.00249875  0.01053179  0.23820364 -0.00028610 -0.00010834
                   Z -0.00632622  0.01825405  0.44002303 -0.00028132  0.00002119
 20   H            X -0.01918427 -0.03107322 -0.31069013  0.00061707  0.00049750
                   Y -0.02898915 -0.04654769 -0.46432402  0.00063179  0.00056222
                   Z  0.03403353  0.05460476  0.54386720 -0.00075397 -0.00067585

 TRANS. SAYVETZ    X  0.00000023 -0.00000012  0.00000073  0.00000004  0.00000004
                   Y  0.00000017 -0.00000051 -0.00000045  0.00000002  0.00000003
                   Z  0.00000054  0.00000088  0.00000007  0.00000002 -0.00000006
               TOTAL  0.00000061  0.00000103  0.00000086  0.00000004  0.00000008

   ROT. SAYVETZ    X  0.00000082 -0.00000432  0.00000142 -0.00000825  0.00000286
                   Y  0.00000059  0.00000803 -0.00000586 -0.00000081 -0.00002943
                   Z -0.00000028  0.00000842 -0.00000079 -0.00000034 -0.00001640
               TOTAL  0.00000105  0.00001241  0.00000608  0.00000830  0.00003381

 REFERENCE ON SAYVETZ CONDITIONS - A. SAYVETZ, J.CHEM.PHYS., 7, 383-389(1939).

 NOTE - THE MODES J,K ARE ORTHONORMALIZED ACCORDING TO
 SUM ON I   M(I) * (X(I,J)*X(I,K) + Y(I,J)*Y(I,K) + Z(I,J)*Z(I,K)) = DELTA(J,K)

  MODE FREQ(CM**-1)  SYMMETRY  RED. MASS  IR INTENS.
     1     903.470    A       10.369219    0.125687
     2       3.827    A        4.107056    0.000527
     3       2.825    A        5.339739    0.014102
     4       1.120    A        4.660754    0.015860
     5       0.035    A        6.748202    0.000006
     6       0.066    A        6.712353    0.000027
     7       0.246    A        6.926812    0.000171
     8     110.227    A        5.545795    0.039696
     9     235.471    A        3.059409    0.032475
    10     263.004    A        3.847054    0.023397
    11     395.089    A        4.417571    0.027247
    12     467.503    A        2.317906    0.049146
    13     479.298    A        2.984466    0.003415
    14     498.672    A        4.838072    0.195115
    15     525.736    A        6.025081    0.022156
    16     574.573    A        2.469674    0.099065
    17     636.571    A        5.141095    0.006381
    18     651.608    A        2.242159    0.201259
    19     692.856    A        5.718235    0.027247
    20     839.744    A        4.131403    0.080656
    21     856.127    A        3.173618    0.101817
    22     911.787    A        1.471824    0.238161
    23     936.982    A        1.710944    4.837174
    24     942.184    A        1.840441    0.314302
    25    1008.283    A        1.886228    0.115001
    26    1060.046    A        1.294302    0.100285
    27    1100.236    A        3.774618    0.036171
    28    1107.779    A        1.467927    0.217587
    29    1148.710    A        1.954731    0.072096
    30    1207.454    A        1.280184    0.041203
    31    1211.703    A        1.600359    0.185844
    32    1244.342    A        1.131988    0.015452
    33    1250.619    A        1.257769    0.040477
    34    1287.559    A        1.128211    0.052468
    35    1323.488    A        1.216773    0.091613
    36    1349.475    A        1.151140    0.073276
    37    1406.185    A        1.235364    0.123404
    38    1422.468    A        1.597953    0.648208
    39    1447.472    A        1.321891    0.130983
    40    1456.639    A        1.355902    0.069340
    41    1490.906    A        1.804859    0.005035
    42    1600.183    A        1.626527    0.233846
    43    1638.350    A        1.722713    0.128562
    44    1664.233    A        1.625095    0.002442
    45    1718.113    A        2.498782    0.393552
    46    1763.155    A        1.939939    0.024663
    47    1821.463    A        1.223575    0.378140
    48    1852.662    A        2.088781    0.025881
    49    2014.866    A        7.168227    0.060349
    50    2084.264    A       10.617458    1.652378
    51    3621.904    A        1.063568    0.187873
    52    3625.390    A        1.065361    0.018002
    53    3681.769    A        1.092127    0.199743
    54    3686.404    A        1.093704    0.072025
    55    3704.431    A        1.090917    0.572419
    56    3715.135    A        1.097843    0.721874
    57    3721.580    A        1.097766    0.053422
    58    3735.882    A        1.106315    0.045824
    59    3764.115    A        1.116144    0.020522
    60    3765.895    A        1.116594    0.033064

     -------------------------------
     THERMOCHEMISTRY AT T=  298.15 K
     -------------------------------

 USING IDEAL GAS, RIGID ROTOR, HARMONIC NORMAL MODE APPROXIMATIONS.
 P=  1.01325E+05 PASCAL.
 ALL FREQUENCIES ARE SCALED BY   1.00000
 THE MOMENTS OF INERTIA ARE (IN AMU*BOHR**2)
            864.19583          1246.83260          1514.19823
 THE ROTATIONAL SYMMETRY NUMBER IS  1.0
 THE ROTATIONAL CONSTANTS ARE (IN GHZ)
      2.08643     1.44613     1.19079
   1 IMAGINARY FREQUENCY VIBRATION(S) IS(ARE) EXCLUDED
     FROM THE FOLLOWING THERMOCHEMICAL ANALYSIS.
      8 -     60 VIBRATIONAL MODES ARE USED IN THERMOCHEMISTRY.
 THE HARMONIC ZERO POINT ENERGY IS (SCALED BY   1.000)
        0.193008 HARTREE/MOLECULE    42360.294728 CM**-1/MOLECULE 
      121.114282 KCAL/MOL              506.742155 KJ/MOL

               Q               LN Q
 ELEC.     1.00000E+00       0.000000
 TRANS.    6.10192E+07      17.926699
 ROT.      4.57239E+05      13.032961
 VIB.      1.17614E+01       2.464820
 TOT.      3.28146E+14      33.424480

              E         H         G         CV        CP        S
           KJ/MOL    KJ/MOL    KJ/MOL   J/MOL-K   J/MOL-K   J/MOL-K
 ELEC.      0.000     0.000     0.000     0.000     0.000     0.000
 TRANS.     3.718     6.197   -44.439    12.472    20.786   169.836
 ROT.       3.718     3.718   -32.308    12.472    12.472   120.833
 VIB.     517.343   517.343   500.632    90.876    90.876    56.049
 TOTAL    524.780   527.259   423.885   115.819   124.134   346.718
 VIB. THERMAL CORRECTION E(T)-E(0) = H(T)-H(0) =     10600.828 J/MOL

              E         H         G         CV        CP        S
         KCAL/MOL  KCAL/MOL  KCAL/MOL CAL/MOL-K CAL/MOL-K CAL/MOL-K
 ELEC.      0.000     0.000     0.000     0.000     0.000     0.000
 TRANS.     0.889     1.481   -10.621     2.981     4.968    40.592
 ROT.       0.889     0.889    -7.722     2.981     2.981    28.880
 VIB.     123.648   123.648   119.654    21.720    21.720    13.396
 TOTAL    125.425   126.018   101.311    27.682    29.669    82.868
 VIB. THERMAL CORRECTION E(T)-E(0) = H(T)-H(0) =      2533.659 CAL/MOL
 ......END OF NORMAL COORDINATE ANALYSIS......
 STEP CPU TIME =     0.02 TOTAL CPU TIME =         72.1 (      1.2 MIN)
 TOTAL WALL CLOCK TIME=         72.7 SECONDS, CPU UTILIZATION IS    99.28%
               580000  WORDS OF DYNAMIC MEMORY USED
 EXECUTION OF GAMESS TERMINATED NORMALLY Sat Nov 13 19:22:29 2021
 DDI: 263640 bytes (0.3 MB / 0 MWords) used by master data server.

 ----------------------------------------
 CPU timing information for all processes
 ========================================
 0: 71.135 + 1.02 = 72.138
 ----------------------------------------
 ddikick.x: exited gracefully.
----- accounting info -----
Files used on the master node chemcompute-node-0.novalocal were:
-rw-r--r--. 1 chemcomp chemcomp     1542 Nov 13 19:21 /scratch/306109/342011.F05
-rw-rw-r--. 1 chemcomp chemcomp 18181616 Nov 13 19:21 /scratch/306109/342011.F08
-rw-rw-r--. 1 chemcomp chemcomp 85196800 Nov 13 19:22 /scratch/306109/342011.F10
-rw-rw-r--. 1 chemcomp chemcomp   878880 Nov 13 19:22 /scratch/306109/342011.F18
Sat Nov 13 19:22:32 UTC 2021
0.199u 0.105s 1:17.48 0.3%	0+0k 8+216io 0pf+0w
Finishing Up...
Looking for IR data...
Looking for Raman data...
vibramans not found
Looking for thermodynamics data...
Looking for UV-Vis data...
306109
