----- GAMESS execution script 'rungms' -----
This job is running on host chemcompute-node-0.novalocal
under operating system Linux at Sat Nov 13 17:56:58 UTC 2021
SLURM has assigned the following compute nodes to this run:
chemcompute-node-0
Available scratch disk space (Kbyte units) at beginning of the job is
Filesystem     1K-blocks     Used Available Use% Mounted on
/dev/sda1       62903276 16764448  46138828  27% /
GAMESS temporary binary files will be written to /scratch/306071
GAMESS supplementary output files will be written to /data/slurm/341973
Copying input file 341973.inp to your run's scratch directory...
The generated host list is
chemcompute-node-0.novalocal

 Distributed Data Interface kickoff program.
 Initiating 1 compute processes on 1 nodes to run the following command:
 /data/gamess-2019R1-ddi/gamess.00.x 341973 

          ******************************************************
          *         GAMESS VERSION = 30 JUN 2019 (R1)          *
          *             FROM IOWA STATE UNIVERSITY             *
          * M.W.SCHMIDT, K.K.BALDRIDGE, J.A.BOATZ, S.T.ELBERT, *
          *   M.S.GORDON, J.H.JENSEN, S.KOSEKI, N.MATSUNAGA,   *
          *          K.A.NGUYEN, S.J.SU, T.L.WINDUS,           *
          *       TOGETHER WITH M.DUPUIS, J.A.MONTGOMERY       *
          *         J.COMPUT.CHEM.  14, 1347-1363(1993)        *
          **************** 64 BIT LINUX VERSION ****************

  SINCE 1993, STUDENTS AND POSTDOCS WORKING AT IOWA STATE UNIVERSITY
  AND ALSO IN THEIR VARIOUS JOBS AFTER LEAVING ISU HAVE MADE IMPORTANT
  CONTRIBUTIONS TO THE CODE:
     IVANA ADAMOVIC, CHRISTINE AIKENS, YURI ALEXEEV, POOJA ARORA,
     ANDREY ASADCHEV, ROB BELL, PRADIPTA BANDYOPADHYAY, JONATHAN BENTZ,
     COLLEEN BERTONI, BRETT BODE, KURT BRORSEN, CALEB CARLIN, GALINA CHABAN,
     WEI CHEN, CHEOL HO CHOI, PAUL DAY, ALBERT DEFUSCO, NUWAN DESILVA,
     TIM DUDLEY, DMITRI FEDOROV, ALEX FINDLATER, GRAHAM FLETCHER, 
     MARK FREITAG, KURT GLAESEMANN, ANASTASIA GUNINA,
     DAN KEMP, GRANT MERRILL, NORIYUKI MINEZAWA, JONATHAN MULLIN,
     TAKESHI NAGATA, SEAN NEDD, HEATHER NETZLOFF, BOSILJKA NJEGIC, RYAN OLSON,
     MIKE PAK, BUU PHAM,
     SPENCER PRUITT, LUKE ROSKOP, JIM SHOEMAKER, LYUDMILA SLIPCHENKO,
     TONY SMITH, SAROM SOK LEANG, JIE SONG, TETSUYA TAKETSUGU, SIMON WEBB,
     PENG XU, SOOHAENG YOO, FEDERICO ZAHARIEV

  ADDITIONAL CODE HAS BEEN PROVIDED BY COLLABORATORS IN OTHER GROUPS:
     IOWA STATE UNIVERSITY:
          JOE IVANIC, AARON WEST, LAIMUTIS BYTAUTAS, KLAUS RUEDENBERG
     UNIVERSITY OF TOKYO: KIMIHIKO HIRAO, TAKAHITO NAKAJIMA,
          TAKAO TSUNEDA, MUNEAKI KAMIYA, SUSUMU YANAGISAWA,
          KIYOSHI YAGI, MAHITO CHIBA, SEIKEN TOKURA, NAOAKI KAWAKAMI
     UNIVERSITY OF AARHUS: FRANK JENSEN
     UNIVERSITY OF IOWA: VISVALDAS KAIRYS, HUI LI
     NATIONAL INST. OF STANDARDS AND TECHNOLOGY: WALT STEVENS, DAVID GARMER
     UNIVERSITY OF PISA: BENEDETTA MENNUCCI, JACOPO TOMASI
     UNIVERSITY OF MEMPHIS: HENRY KURTZ, PRAKASHAN KORAMBATH
     UNIVERSITY OF ALBERTA: TOBY ZENG, MARIUSZ KLOBUKOWSKI
     UNIVERSITY OF NEW ENGLAND: MARK SPACKMAN
     MIE UNIVERSITY: HIROAKI UMEDA
     NAT. INST. OF ADVANCED INDUSTRIAL SCIENCE AND TECHNOLOGY: KAZUO KITAURA
     MICHIGAN STATE UNIVERSITY:
          KAROL KOWALSKI, MARTA WLOCH, JEFFREY GOUR, JESSE LUTZ,
          WEI LI, JUN SHEN, J. EMILIANO DEUSTUA, PIOTR PIECUCH
     UNIVERSITY OF MINNESOTA:
          YINAN SHU
     UNIVERSITY OF SILESIA: MONIKA MUSIAL, STANISLAW KUCHARSKI
     FACULTES UNIVERSITAIRES NOTRE-DAME DE LA PAIX:
          OLIVIER QUINET, BENOIT CHAMPAGNE
     UNIVERSITY OF CALIFORNIA - SANTA BARBARA: BERNARD KIRTMAN
     INSTITUTE FOR MOLECULAR SCIENCE:
          KAZUYA ISHIMURA, MICHIO KATOUDA, AND SHIGERU NAGASE
     UNIVERSITY OF NOTRE DAME: ANNA POMOGAEVA, DAN CHIPMAN
     KYUSHU UNIVERSITY:
          HARUYUKI NAKANO,
          FENG LONG GU, JACEK KORCHOWIEC, MARCIN MAKOWSKI, AND YURIKO AOKI,
          HIROTOSHI MORI AND EISAKU MIYOSHI
     PENNSYLVANIA STATE UNIVERSITY:
          TZVETELIN IORDANOV, CHET SWALINA, JONATHAN SKONE,
          SHARON HAMMES-SCHIFFER
     WASEDA UNIVERSITY:
          MASATO KOBAYASHI, TOMOKO AKAMA, TSUGUKI TOUMA,
          TAKESHI YOSHIKAWA, YASUHIRO IKABATA, JUNJI SEINO,
          YUYA NAKAJIMA, HIROMI NAKAI
     NANJING UNIVERSITY: SHUHUA LI
     UNIVERSITY OF NEBRASKA:
          PEIFENG SU, DEJUN SI, NANDUN THELLAMUREGE, YALI WANG, HUI LI
     UNIVERSITY OF ZURICH: ROBERTO PEVERATI, KIM BALDRIDGE
     N. COPERNICUS UNIVERSITY AND JACKSON STATE UNIVERSITY:
          MARIA BARYSZ
     UNIVERSITY OF COPENHAGEN: Jimmy Kromann, CASPER STEINMANN
     TOKYO INSTITUTE OF TECHNOLOGY: HIROYA NAKATA
     NAGOYA UNIVERSITY: YOSHIO NISHIMOTO, STEPHAN IRLE
     MOSCOW STATE UNIVERSITY: VLADIMIR MIRONOV
     A.N.NESMEYANOV INSTITUTE OF ORGANOELEMENT COMPOUNDS OF RUSSIAN ACADEMY OF SCIENCES:
          IGOR S. GERASIMOV

 EXECUTION OF GAMESS BEGUN Sat Nov 13 17:56:59 2021

            ECHO OF THE FIRST FEW INPUT CARDS -
 INPUT CARD>!File created by the GAMESS Input Deck Generator Plugin for Avogadro            
 INPUT CARD> $BASIS GBASIS=STO NGAUSS=3 $END                                                
 INPUT CARD> $CONTRL SCFTYP=RHF RUNTYP=SADPOINT NZVAR=1 mult=1  ICHARG=0 $END               
 INPUT CARD> $STATPT hssend=.t. OPTTOL=0.0005 NSTEP=50 $END                                 
 INPUT CARD> $STATPT HESS=calc ihrep=5 $END                                                 
 INPUT CARD> $FORCE nvib=2 $END                                                             
 INPUT CARD> $ZMAT DLC=.t. auto=.t. nonvdw(1)=6,1,4,3 $END                                  
 INPUT CARD> $ZMAT IFZMAT(1)=1,6,1,1,4,3 fvalue(1)=2.00,2.00 $END                           
 INPUT CARD>                                                                                
 INPUT CARD> $DATA                                                                          
 INPUT CARD>Title                                                                           
 INPUT CARD>C1                                                                              
 INPUT CARD>C     6.0     3.29032    -2.38925    -1.98551                                   
 INPUT CARD>C     6.0     2.74929    -1.14469    -1.93365                                   
 INPUT CARD>C     6.0     2.85435    -0.31434    -0.68494                                   
 INPUT CARD>C     6.0     4.79250    -0.27913    -0.19948                                   
 INPUT CARD>C     6.0     5.23346    -1.70327    -0.35914                                   
 INPUT CARD>C     6.0     5.25152    -2.19723    -1.62885                                   
 INPUT CARD>C     6.0     5.76938    -1.28882    -2.67641                                   
 INPUT CARD>C     6.0     5.87150     0.03866    -2.51235                                   
 INPUT CARD>C     6.0     5.40239     0.64602    -1.23849                                   
 INPUT CARD>O     8.0     5.46418     1.86445    -1.08702                                   
 INPUT CARD>H     1.0     3.25513    -2.92758    -2.93607                                   
 INPUT CARD>H     1.0     3.25712    -2.99980    -1.07336                                   
 INPUT CARD>H     1.0     2.49095    -0.63018    -2.85593                                   
 INPUT CARD>H     1.0     2.60087     0.73728    -0.84085                                   
 INPUT CARD>H     1.0     2.35585    -0.75298     0.18327                                   
 INPUT CARD>H     1.0     4.84334     0.11765     0.81628                                   
 INPUT CARD>H     1.0     5.17780    -2.36840     0.49634                                   
 INPUT CARD>H     1.0     5.48173    -3.25869    -1.77828                                   
 INPUT CARD>H     1.0     6.11215    -1.75443    -3.59644                                   
 INPUT CARD>H     1.0     6.27013     0.70385    -3.26592                                   
 INPUT CARD> $END                                                                           
    1000000 WORDS OF MEMORY AVAILABLE

     BASIS OPTIONS
     -------------
     GBASIS=STO          IGAUSS=       3      POLAR=NONE    
     NDFUNC=       0     NFFUNC=       0     DIFFSP=       F
     NPFUNC=       0      DIFFS=       F     BASNAM=        


     RUN TITLE
     ---------
 Title                                                                           

 THE POINT GROUP OF THE MOLECULE IS C1      
 THE ORDER OF THE PRINCIPAL AXIS IS     0

 ATOM      ATOMIC                      COORDINATES (BOHR)
           CHARGE         X                   Y                   Z
 C           6.0     6.2178032119       -4.5150278162       -3.7520698459
 C           6.0     5.1954047608       -2.1631504409       -3.6540686562
 C           6.0     5.3939393731       -0.5940164670       -1.2943489180
 C           6.0     9.0565117962       -0.5274792150       -0.3769625400
 C           6.0     9.8898053677       -3.2187135831       -0.6786761912
 C           6.0     9.9239338190       -4.1521626320       -3.0780801751
 C           6.0    10.9025473190       -2.4355166475       -5.0576815308
 C           6.0    11.0955261369        0.0730568067       -4.7476530853
 C           6.0    10.2090367788        1.2208007826       -2.3404067385
 O           8.0    10.3258029476        3.5232996178       -2.0541699432
 H           1.0     6.1513037544       -5.5323240071       -5.5483677808
 H           1.0     6.1550643091       -5.6688000180       -2.0283562862
 H           1.0     4.7072129491       -1.1908675229       -5.3969251401
 H           1.0     4.9149316297        1.3932571762       -1.5889760968
 H           1.0     4.4519109682       -1.4229258742        0.3463300818
 H           1.0     9.1525854654        0.2223262625        1.5425455293
 H           1.0     9.7846232192       -4.4756270293        0.9379465967
 H           1.0    10.3589676387       -6.1580311789       -3.3604619294
 H           1.0    11.5502886959       -3.3153919646       -6.7962861313
 H           1.0    11.8488276074        1.3300836365       -6.1716938978

          INTERNUCLEAR DISTANCES (ANGS.)
          ------------------------------

                1 C          2 C          3 C          4 C          5 C     

   1 C       0.0000000    1.3580620 *  2.4873286 *  3.1462763    2.6251554 *
   2 C       1.3580620 *  0.0000000    1.5032616 *  2.8162469 *  2.9936924 *
   3 C       2.4873286 *  1.5032616 *  0.0000000    1.9983335 *  2.7740650 *
   4 C       3.1462763    2.8162469 *  1.9983335 *  0.0000000    1.4993705 *
   5 C       2.6251554 *  2.9936924 *  2.7740650 *  1.4993705 *  0.0000000  
   6 C       2.0025942 *  2.7316476 *  3.1910288    2.4357556 *  1.3625293 *
   7 C       2.7989333 *  3.1134241    3.6623714    2.8476219 *  2.4142741 *
   8 C       3.5825686    3.3887175    3.5450290    2.5718863 *  2.8421345 *
   9 C       3.7724982    3.2754892    2.7787078 *  1.5190162 *  2.5141514 *
  10 O       4.8607525    4.1403301    3.4234495    2.4153295 *  3.6485157  
  11 H       1.0929784 *  2.1069923 *  3.4723528    4.1069111    3.4717852  
  12 H       1.0981308 *  2.1069939 *  2.7431349 *  3.2439333    2.4692145 *
  13 H       2.1191863 *  1.0872261 *  2.2237383 *  3.5322932    3.8609382  
  14 H       3.4001144    2.1812958 *  1.0929157 *  2.4995373 *  3.6219965  
  15 H       2.8730159 *  2.1885114 *  1.0930215 *  2.5116319 *  3.0786197  
  16 H       4.0677323    3.6797639    2.5291022 *  1.0916902 *  2.2021706 *
  17 H       3.1181076    3.6469135    3.3185848    2.2355471 *  1.0850539 *
  18 H       2.3666745 *  3.4582314    4.0948400    3.4417184    2.1201245 *
  19 H       3.3107124    3.8007211    4.6004296    3.9315803    3.3548211  
  20 H       4.4817391    4.1938476    4.4006501    3.5429782    3.9138576  

                6 C          7 C          8 C          9 C         10 O     

   1 C       2.0025942 *  2.7989333 *  3.5825686    3.7724982    4.8607525  
   2 C       2.7316476 *  3.1134241    3.3887175    3.2754892    4.1403301  
   3 C       3.1910288    3.6623714    3.5450290    2.7787078 *  3.4234495  
   4 C       2.4357556 *  2.8476219 *  2.5718863 *  1.5190162 *  2.4153295 *
   5 C       1.3625293 *  2.4142741 *  2.8421345 *  2.5141514 *  3.6485157  
   6 C       0.0000000    1.4801249 *  2.4827709 *  2.8738847 *  4.1031754  
   7 C       1.4801249 *  0.0000000    1.3414721 *  2.4384219 *  3.5443503  
   8 C       2.4827709 *  1.3414721 *  0.0000000    1.4871683 *  2.3518045 *
   9 C       2.8738847 *  2.4384219 *  1.4871683 *  0.0000000    1.2293628 *
  10 O       4.1031754    3.5443503    2.3518045 *  1.2293628 *  0.0000000  
  11 H       2.4955577 *  3.0123763    3.9778776    4.5014576    5.5912824  
  12 H       2.2204322 *  3.4363749    4.2588630    4.2333739    5.3415567  
  13 H       3.4032511    3.3487516    3.4631651    3.5666905    4.2652454  
  14 H       4.0321506    4.1849513    3.7388505    2.8310705 *  3.0870141  
  15 H       3.7087116    4.4852069    4.5003173    3.6414295    4.2574983  
  16 H       3.3917460    3.8774465    3.4846994    2.1940354 *  2.6569350 *
  17 H       2.1333463 *  3.4032047    3.9150189    3.4852265    4.5283619  
  18 H       1.0963682 *  2.1839798 *  3.4004847    3.9426423    5.1695949  
  19 H       2.1927531 *  1.0866182 *  2.1091077 *  3.4388730    4.4512185  
  20 H       3.4833647    2.1375234 *  1.0813193 *  2.2060801 *  2.5969507 *

               11 H         12 H         13 H         14 H         15 H     

   1 C       1.0929784 *  1.0981308 *  2.1191863 *  3.4001144    2.8730159 *
   2 C       2.1069923 *  2.1069939 *  1.0872261 *  2.1812958 *  2.1885114 *
   3 C       3.4723528    2.7431349 *  2.2237383 *  1.0929157 *  1.0930215 *
   4 C       4.1069111    3.2439333    3.5322932    2.4995373 *  2.5116319 *
   5 C       3.4717852    2.4692145 *  3.8609382    3.6219965    3.0786197  
   6 C       2.4955577 *  2.2204322 *  3.4032511    4.0321506    3.7087116  
   7 C       3.0123763    3.4363749    3.3487516    4.1849513    4.4852069  
   8 C       3.9778776    4.2588630    3.4631651    3.7388505    4.5003173  
   9 C       4.5014576    4.2333739    3.5666905    2.8310705 *  3.6414295  
  10 O       5.5912824    5.3415567    4.2652454    3.0870141    4.2574983  
  11 H       0.0000000    1.8641106 *  2.4224864 *  4.2719085    3.9074124  
  12 H       1.8641106 *  0.0000000    3.0626249    3.8013803    2.7275642 *
  13 H       2.4224864 *  3.0626249    0.0000000    2.4377401 *  3.0446787  
  14 H       4.2719085    3.8013803    2.4377401 *  0.0000000    1.8247552 *
  15 H       3.9074124    2.7275642 *  3.0446787    1.8247552 *  0.0000000  
  16 H       5.0868426    3.9755915    4.4247163    2.8563426 *  2.7104068 *
  17 H       3.9737615    2.5596163 *  4.6344672    4.2513402    3.2666491  
  18 H       2.5313749 *  2.3479408 *  4.1249436    5.0145693    4.4606487  
  19 H       3.1583117    4.0085004    3.8633383    5.1118472    5.4220752  
  20 H       4.7314173    5.2538150    4.0286386    4.3983578    5.4167198  

               16 H         17 H         18 H         19 H         20 H     

   1 C       4.0677323    3.1181076    2.3666745 *  3.3107124    4.4817391  
   2 C       3.6797639    3.6469135    3.4582314    3.8007211    4.1938476  
   3 C       2.5291022 *  3.3185848    4.0948400    4.6004296    4.4006501  
   4 C       1.0916902 *  2.2355471 *  3.4417184    3.9315803    3.5429782  
   5 C       2.2021706 *  1.0850539 *  2.1201245 *  3.3548211    3.9138576  
   6 C       3.3917460    2.1333463 *  1.0963682 *  2.1927531 *  3.4833647  
   7 C       3.8774465    3.4032047    2.1839798 *  1.0866182 *  2.1375234 *
   8 C       3.4846994    3.9150189    3.4004847    2.1091077 *  1.0813193 *
   9 C       2.1940354 *  3.4852265    3.9426423    3.4388730    2.2060801 *
  10 O       2.6569350 *  4.5283619    5.1695949    4.4512185    2.5969507 *
  11 H       5.0868426    3.9737615    2.5313749 *  3.1583117    4.7314173  
  12 H       3.9755915    2.5596163 *  2.3479408 *  4.0085004    5.2538150  
  13 H       4.4247163    4.6344672    4.1249436    3.8633383    4.0286386  
  14 H       2.8563426 *  4.2513402    5.0145693    5.1118472    4.3983578  
  15 H       2.7104068 *  3.2666491    4.4606487    5.4220752    5.4167198  
  16 H       0.0000000    2.5287684 *  4.3056887    4.9584937    4.3639107  
  17 H       2.5287684 *  0.0000000    2.4614804 *  4.2427370    4.9786047  
  18 H       4.3056887    2.4614804 *  0.0000000    2.4425260 *  4.3053886  
  19 H       4.9584937    4.2427370    2.4425260 *  0.0000000    2.4854259 *
  20 H       4.3639107    4.9786047    4.3053886    2.4854259 *  0.0000000  

  * ... LESS THAN  3.000


     ATOMIC BASIS SET
     ----------------
 THE CONTRACTED PRIMITIVE FUNCTIONS HAVE BEEN UNNORMALIZED
 THE CONTRACTED BASIS FUNCTIONS ARE NOW NORMALIZED TO UNITY

  SHELL TYPE  PRIMITIVE        EXPONENT          CONTRACTION COEFFICIENT(S)

 C         

      1   S       1            71.6168373    0.154328967295
      1   S       2            13.0450963    0.535328142282
      1   S       3             3.5305122    0.444634542185

      2   L       4             2.9412494   -0.099967229187    0.155916274999
      2   L       5             0.6834831    0.399512826089    0.607683718598
      2   L       6             0.2222899    0.700115468880    0.391957393099

 C         

      3   S       7            71.6168373    0.154328967295
      3   S       8            13.0450963    0.535328142282
      3   S       9             3.5305122    0.444634542185

      4   L      10             2.9412494   -0.099967229187    0.155916274999
      4   L      11             0.6834831    0.399512826089    0.607683718598
      4   L      12             0.2222899    0.700115468880    0.391957393099

 C         

      5   S      13            71.6168373    0.154328967295
      5   S      14            13.0450963    0.535328142282
      5   S      15             3.5305122    0.444634542185

      6   L      16             2.9412494   -0.099967229187    0.155916274999
      6   L      17             0.6834831    0.399512826089    0.607683718598
      6   L      18             0.2222899    0.700115468880    0.391957393099

 C         

      7   S      19            71.6168373    0.154328967295
      7   S      20            13.0450963    0.535328142282
      7   S      21             3.5305122    0.444634542185

      8   L      22             2.9412494   -0.099967229187    0.155916274999
      8   L      23             0.6834831    0.399512826089    0.607683718598
      8   L      24             0.2222899    0.700115468880    0.391957393099

 C         

      9   S      25            71.6168373    0.154328967295
      9   S      26            13.0450963    0.535328142282
      9   S      27             3.5305122    0.444634542185

     10   L      28             2.9412494   -0.099967229187    0.155916274999
     10   L      29             0.6834831    0.399512826089    0.607683718598
     10   L      30             0.2222899    0.700115468880    0.391957393099

 C         

     11   S      31            71.6168373    0.154328967295
     11   S      32            13.0450963    0.535328142282
     11   S      33             3.5305122    0.444634542185

     12   L      34             2.9412494   -0.099967229187    0.155916274999
     12   L      35             0.6834831    0.399512826089    0.607683718598
     12   L      36             0.2222899    0.700115468880    0.391957393099

 C         

     13   S      37            71.6168373    0.154328967295
     13   S      38            13.0450963    0.535328142282
     13   S      39             3.5305122    0.444634542185

     14   L      40             2.9412494   -0.099967229187    0.155916274999
     14   L      41             0.6834831    0.399512826089    0.607683718598
     14   L      42             0.2222899    0.700115468880    0.391957393099

 C         

     15   S      43            71.6168373    0.154328967295
     15   S      44            13.0450963    0.535328142282
     15   S      45             3.5305122    0.444634542185

     16   L      46             2.9412494   -0.099967229187    0.155916274999
     16   L      47             0.6834831    0.399512826089    0.607683718598
     16   L      48             0.2222899    0.700115468880    0.391957393099

 C         

     17   S      49            71.6168373    0.154328967295
     17   S      50            13.0450963    0.535328142282
     17   S      51             3.5305122    0.444634542185

     18   L      52             2.9412494   -0.099967229187    0.155916274999
     18   L      53             0.6834831    0.399512826089    0.607683718598
     18   L      54             0.2222899    0.700115468880    0.391957393099

 O         

     19   S      55           130.7093214    0.154328967295
     19   S      56            23.8088661    0.535328142282
     19   S      57             6.4436083    0.444634542185

     20   L      58             5.0331513   -0.099967229187    0.155916274999
     20   L      59             1.1695961    0.399512826089    0.607683718598
     20   L      60             0.3803890    0.700115468880    0.391957393099

 H         

     21   S      61             3.4252509    0.154328967295
     21   S      62             0.6239137    0.535328142282
     21   S      63             0.1688554    0.444634542185

 H         

     22   S      64             3.4252509    0.154328967295
     22   S      65             0.6239137    0.535328142282
     22   S      66             0.1688554    0.444634542185

 H         

     23   S      67             3.4252509    0.154328967295
     23   S      68             0.6239137    0.535328142282
     23   S      69             0.1688554    0.444634542185

 H         

     24   S      70             3.4252509    0.154328967295
     24   S      71             0.6239137    0.535328142282
     24   S      72             0.1688554    0.444634542185

 H         

     25   S      73             3.4252509    0.154328967295
     25   S      74             0.6239137    0.535328142282
     25   S      75             0.1688554    0.444634542185

 H         

     26   S      76             3.4252509    0.154328967295
     26   S      77             0.6239137    0.535328142282
     26   S      78             0.1688554    0.444634542185

 H         

     27   S      79             3.4252509    0.154328967295
     27   S      80             0.6239137    0.535328142282
     27   S      81             0.1688554    0.444634542185

 H         

     28   S      82             3.4252509    0.154328967295
     28   S      83             0.6239137    0.535328142282
     28   S      84             0.1688554    0.444634542185

 H         

     29   S      85             3.4252509    0.154328967295
     29   S      86             0.6239137    0.535328142282
     29   S      87             0.1688554    0.444634542185

 H         

     30   S      88             3.4252509    0.154328967295
     30   S      89             0.6239137    0.535328142282
     30   S      90             0.1688554    0.444634542185

 TOTAL NUMBER OF BASIS SET SHELLS             =   30
 NUMBER OF CARTESIAN GAUSSIAN BASIS FUNCTIONS =   60
 NUMBER OF ELECTRONS                          =   72
 CHARGE OF MOLECULE                           =    0
 SPIN MULTIPLICITY                            =    1
 NUMBER OF OCCUPIED ORBITALS (ALPHA)          =   36
 NUMBER OF OCCUPIED ORBITALS (BETA )          =   36
 TOTAL NUMBER OF ATOMS                        =   20
 THE NUCLEAR REPULSION ENERGY IS      507.5869813607

     $CONTRL OPTIONS
     ---------------
 SCFTYP=RHF          RUNTYP=SADPOINT     EXETYP=RUN     
 MPLEVL=       0     CITYP =NONE         CCTYP =NONE         VBTYP =NONE    
 DFTTYP=NONE         TDDFT =NONE    
 MULT  =       1     ICHARG=       0     NZVAR =       1     COORD =UNIQUE  
 PP    =NONE         RELWFN=NONE         LOCAL =NONE         NUMGRD=       F
 ISPHER=      -1     NOSYM =       0     MAXIT =      30     UNITS =ANGS    
 PLTORB=       F     MOLPLT=       F     AIMPAC=       F     FRIEND=        
 NPRINT=       7     IREST =       0     GEOM  =INPUT   
 NORMF =       0     NORMP =       0     ITOL  =      20     ICUT  =       9
 INTTYP=BEST         GRDTYP=BEST         QMTTOL= 1.0E-06

     $SYSTEM OPTIONS
     ---------------
  REPLICATED MEMORY=     1000000 WORDS (ON EVERY NODE).
 DISTRIBUTED MEMDDI=           0 MILLION WORDS IN AGGREGATE,
 MEMDDI DISTRIBUTED OVER   1 PROCESSORS IS           0 WORDS/PROCESSOR.
 TOTAL MEMORY REQUESTED ON EACH PROCESSOR=     1000000 WORDS.
 TIMLIM=      525600.00 MINUTES, OR     365.0 DAYS.
 PARALL= F  BALTYP=  DLB     KDIAG=    0  COREFL= F
 MXSEQ2=     300 MXSEQ3=     150  mem10=         0

          ----------------
          PROPERTIES INPUT
          ----------------

     MOMENTS            FIELD           POTENTIAL          DENSITY
 IEMOM =       1   IEFLD =       0   IEPOT =       0   IEDEN =       0
 WHERE =COMASS     WHERE =NUCLEI     WHERE =NUCLEI     WHERE =NUCLEI  
 OUTPUT=BOTH       OUTPUT=BOTH       OUTPUT=BOTH       OUTPUT=BOTH    
 IEMINT=       0   IEFINT=       0                     IEDINT=       0
                                                       MORB  =       0
          EXTRAPOLATION IN EFFECT
          SOSCF IN EFFECT
 ORBITAL PRINTING OPTION: NPREO=     1    60     2     1

     -------------------------------
     INTEGRAL TRANSFORMATION OPTIONS
     -------------------------------
     NWORD  =            0
     CUTOFF = 1.0E-09     MPTRAN =       0
     DIRTRF =       F     AOINTS =DUP     

          ----------------------
          INTEGRAL INPUT OPTIONS
          ----------------------
 NOPK  =       1 NORDER=       0 SCHWRZ=       T


 -----------------------------------------------
  STATISTICS ON AUTOMATIC COORDINATE GENERATION 
 -----------------------------------------------
  NUMBER OF USER SPECIFIED BONDS                             2
  NUMBER OF BONDS                                           21
  NUMBER OF ANGLES                                          39
  NUMBER OF TORSIONS                                        62
  NUMBER OF EXTRA COORD.                                     0
  NUMBER OF EXTRA COORD. FOR CONSTRAINTS                     0
  NUMBER OF CONSTRAINED COORD.                               2

  TOTAL NUMBER OF PRIMITIVES                               122
 -----------------------------------------------

   --- ENCODED Z MATRIX ---
 COORD  TYPE   I   J   K   L   M   N
    1      1    1   6
    2      1    3   4
    3      1    1   2
    4      1    1  12
    5      1    1  11
    6      1    2  13
    7      1    2   3
    8      1    3  14
    9      1    3  15
   10      1    4   9
   11      1    4   5
   12      1    4  16
   13      1    5   6
   14      1    5  17
   15      1    6   7
   16      1    6  18
   17      1    7   8
   18      1    7  19
   19      1    8  20
   20      1    8   9
   21      1    9  10
   22      2    1   2  13
   23      2    1   6   7
   24      2    1   6   5
   25      2    1   6  18
   26      2    1   2   3
   27      2    2   1  12
   28      2    2   1  11
   29      2    2   3  15
   30      2    2   3   4
   31      2    2   1   6
   32      2    2   3  14
   33      2    3   2  13
   34      2    3   4  16
   35      2    3   4   5
   36      2    3   4   9
   37      2    4   5  17
   38      2    4   5   6
   39      2    4   9  10
   40      2    4   9   8
   41      2    4   3  15
   42      2    4   3  14
   43      2    5   6   7
   44      2    5   4  16
   45      2    5   4   9
   46      2    5   6  18
   47      2    6   5  17
   48      2    6   1  12
   49      2    6   1  11
   50      2    6   7  19
   51      2    6   7   8
   52      2    7   8  20
   53      2    7   8   9
   54      2    7   6  18
   55      2    8   9  10
   56      2    8   7  19
   57      2    9   4  16
   58      2    9   8  20
   59      2   11   1  12
   60      2   14   3  15
   61      3    1   6   5  17
   62      3    1   6   5   4
   63      3    1   2   3  15
   64      3    1   2   3   4
   65      3    1   2   3  14
   66      3    1   6   7   8
   67      3    1   6   7  19
   68      3    2   3   4   9
   69      3    2   1   6  18
   70      3    2   1   6   5
   71      3    2   1   6   7
   72      3    2   3   4  16
   73      3    2   3   4   5
   74      3    3   4   9  10
   75      3    3   4   9   8
   76      3    3   4   5  17
   77      3    3   4   5   6
   78      3    3   2   1  11
   79      3    3   2   1   6
   80      3    3   2   1  12
   81      3    4   3   2  13
   82      3    4   9   8  20
   83      3    4   9   8   7
   84      3    4   5   6  18
   85      3    4   5   6   7
   86      3    5   4   3  15
   87      3    5   4   3  14
   88      3    5   6   1  11
   89      3    5   6   7  19
   90      3    5   6   7   8
   91      3    5   6   1  12
   92      3    5   4   9   8
   93      3    5   4   9  10
   94      3    6   5   4  16
   95      3    6   5   4   9
   96      3    6   7   8   9
   97      3    6   7   8  20
   98      3    6   1   2  13
   99      3    7   8   9  10
  100      3    7   6   1  11
  101      3    7   6   1  12
  102      3    7   6   5  17
  103      3    8   7   6  18
  104      3    8   9   4  16
  105      3    9   4   5  17
  106      3    9   8   7  19
  107      3    9   4   3  15
  108      3    9   4   3  14
  109      3   10   9   8  20
  110      3   10   9   4  16
  111      3   11   1   2  13
  112      3   11   1   6  18
  113      3   12   1   6  18
  114      3   12   1   2  13
  115      3   13   2   3  15
  116      3   13   2   3  14
  117      3   14   3   4  16
  118      3   15   3   4  16
  119      3   16   4   5  17
  120      3   17   5   6  18
  121      3   18   6   7  19
  122      3   19   7   8  20

          INDEP./SYM. INTERNAL COORDINATES
          --------------------------------
 CRD  1=   1.0000 (  1)
 CRD  2=   1.0000 (  2)
 CRD  3=  -0.1236 (  3)  0.1147 (  5) -0.1141 (  8)  0.2566 ( 10) -0.2116 ( 15)
          -0.1454 ( 18)  0.1295 ( 21)  0.2081 ( 24) -0.1224 ( 25)  0.1488 ( 30)
          -0.1076 ( 31)  0.1229 ( 34) -0.1965 ( 35)  0.3060 ( 39) -0.1902 ( 40)
          -0.1069 ( 42) -0.1113 ( 43)  0.1244 ( 49) -0.1784 ( 50)  0.2056 ( 51)
          -0.1158 ( 55)  0.1375 ( 64)  0.1319 ( 66)  0.1399 ( 67) -0.1152 ( 68)
          -0.1319 ( 70) -0.1541 ( 73)  0.1375 ( 74)  0.1416 ( 75)  0.1502 ( 79)
           0.1355 ( 81) -0.1026 ( 91)  0.1331 ( 98)
 CRD  4=   0.2155 (  3) -0.1012 (  6)  0.1712 (  7)  0.1081 (  8)  0.1180 ( 10)
           0.3284 ( 11)  0.2499 ( 13)  0.1232 ( 15) -0.1625 ( 17) -0.2038 ( 20)
          -0.1637 ( 22)  0.3219 ( 26) -0.1986 ( 30) -0.1585 ( 31) -0.1561 ( 33)
           0.1650 ( 39)  0.1049 ( 41)  0.1106 ( 48)  0.1240 ( 50) -0.2545 ( 55)
          -0.1839 ( 56)  0.1251 ( 86) -0.1228 ( 91)
 CRD  5=  -0.1975 (  3)  0.1413 (  7) -0.1534 ( 13) -0.1192 ( 15) -0.2477 ( 22)
          -0.1336 ( 29)  0.2418 ( 33)  0.1044 ( 37)  0.1341 ( 41)  0.1134 ( 42)
          -0.1221 ( 47) -0.1546 ( 49) -0.1026 ( 63)  0.1676 ( 66)  0.1344 ( 67)
           0.1241 ( 70)  0.1059 ( 72)  0.1276 ( 73)  0.1413 ( 74)  0.1803 ( 75)
           0.1230 ( 78) -0.1366 ( 80) -0.1222 ( 82) -0.1345 ( 83)  0.1621 ( 89)
           0.1954 ( 90)  0.1913 ( 92)  0.1523 ( 93) -0.1012 ( 97) -0.1019 ( 99)
           0.1615 (111)  0.1417 (116)  0.1042 (119)  0.1079 (120)
 CRD  6=   0.2312 (  3)  0.1370 (  5)  0.3454 (  7)  0.1200 (  8) -0.2905 ( 10)
           0.1219 ( 11)  0.1692 ( 13) -0.2970 ( 15)  0.1669 ( 20) -0.2831 ( 39)
          -0.1226 ( 41)  0.1034 ( 46) -0.1416 ( 48) -0.1724 ( 50) -0.1212 ( 52)
           0.3355 ( 55)  0.1695 ( 56)  0.1155 ( 79) -0.1251 ( 91)  0.1153 ( 98)
 CRD  7=  -0.1155 (  7) -0.2905 ( 10) -0.2198 ( 15) -0.1965 ( 17) -0.2582 ( 19)
          -0.4142 ( 20) -0.1393 ( 21) -0.1366 ( 28)  0.1029 ( 30)  0.1423 ( 31)
          -0.1442 ( 32)  0.1741 ( 39) -0.1969 ( 41)  0.1388 ( 42) -0.2132 ( 48)
           0.1662 ( 53) -0.1700 ( 55) -0.2520 ( 58) -0.1618 ( 64)  0.1401 ( 79)
          -0.1572 ( 81)  0.1282 ( 98)
 CRD  8=  -0.1369 (  6) -0.1041 ( 11) -0.1023 ( 14)  0.1295 ( 23) -0.1395 ( 24)
          -0.1415 ( 25)  0.1072 ( 28)  0.1069 ( 29)  0.1452 ( 32) -0.1719 ( 34)
          -0.1333 ( 35)  0.1064 ( 38) -0.2077 ( 41) -0.1789 ( 42)  0.1171 ( 44)
          -0.1588 ( 48) -0.1270 ( 49) -0.2120 ( 61) -0.1966 ( 62)  0.1762 ( 63)
          -0.1579 ( 65)  0.2065 ( 76)  0.1907 ( 77)  0.1177 ( 78) -0.1600 ( 80)
          -0.1260 ( 85) -0.1245 ( 92) -0.1464 ( 93)  0.1579 ( 95) -0.1414 (102)
          -0.1096 (103)  0.1081 (104)  0.1737 (105) -0.1806 (114)  0.2037 (115)
          -0.1304 (116)
 CRD  9=   0.1438 (  3)  0.1132 ( 10)  0.2976 ( 11) -0.3362 ( 13) -0.1988 ( 15)
           0.1549 ( 17) -0.1154 ( 18)  0.1639 ( 21)  0.3707 ( 37)  0.1040 ( 39)
          -0.1415 ( 40) -0.3916 ( 47) -0.2620 ( 50)  0.1262 ( 51)  0.1356 ( 56)
           0.1096 ( 68)  0.1189 (102)
 CRD 10=   0.2200 (  3)  0.1906 (  7)  0.4069 ( 17)  0.1440 ( 18) -0.1367 ( 20)
           0.1190 ( 22)  0.1444 ( 28) -0.1322 ( 37)  0.1603 ( 39) -0.1196 ( 49)
          -0.1593 ( 50) -0.1292 ( 51)  0.3760 ( 52) -0.1859 ( 55)  0.2881 ( 56)
          -0.4105 ( 58)
 CRD 11=  -0.2037 (  3) -0.2003 (  6) -0.3772 (  7)  0.2292 ( 11)  0.1962 ( 13)
           0.1746 ( 14)  0.2421 ( 17)  0.1553 ( 19)  0.1572 ( 26) -0.1743 ( 32)
          -0.2100 ( 33) -0.1418 ( 38) -0.1460 ( 39)  0.1409 ( 42) -0.2249 ( 50)
           0.1829 ( 52) -0.1233 ( 53)  0.1547 ( 56) -0.1069 (106)  0.1506 (108)
 CRD 12=   0.1211 (  3)  0.1102 (  4) -0.1235 (  6) -0.2796 (  7) -0.2513 ( 10)
          -0.1641 ( 11) -0.1347 ( 12) -0.1876 ( 13) -0.2443 ( 14) -0.1764 ( 15)
          -0.1480 ( 17) -0.1077 ( 18) -0.1353 ( 19) -0.1546 ( 20)  0.2278 ( 22)
           0.1072 ( 26)  0.1559 ( 28) -0.1694 ( 31) -0.3325 ( 33)  0.1957 ( 41)
           0.1900 ( 48)  0.1329 ( 64) -0.1460 ( 98)
 CRD 13=   0.3342 (  3)  0.1360 (  6) -0.1034 (  9)  0.1830 ( 11)  0.1040 ( 14)
           0.2127 ( 15)  0.1405 ( 16)  0.1302 ( 20)  0.1912 ( 21)  0.3189 ( 22)
          -0.1143 ( 26)  0.1084 ( 28)  0.1442 ( 30) -0.2054 ( 33) -0.1369 ( 40)
          -0.1242 ( 48) -0.1019 ( 49)  0.2602 ( 50) -0.1795 ( 52)  0.1513 ( 53)
           0.1262 ( 54) -0.2028 ( 56)  0.1061 ( 78) -0.1018 ( 81)  0.1030 ( 88)
           0.1414 (100)
 CRD 14=  -0.2056 (  3)  0.1540 ( 11)  0.1538 ( 12)  0.1994 ( 13) -0.1078 ( 14)
           0.1154 ( 16)  0.2656 ( 18) -0.2551 ( 19)  0.1513 ( 20)  0.1982 ( 21)
          -0.1003 ( 29)  0.1204 ( 38)  0.1128 ( 39) -0.1710 ( 40)  0.1181 ( 41)
           0.1241 ( 48)  0.1182 ( 50) -0.2299 ( 51) -0.1592 ( 52)  0.3358 ( 53)
           0.1120 ( 56) -0.1769 ( 58)  0.1067 ( 64) -0.1345 ( 78) -0.1337 ( 79)
 CRD 15=   0.2320 (  3)  0.1427 (  4) -0.1622 (  7) -0.1713 (  9)  0.1537 ( 10)
          -0.1823 ( 11)  0.1755 ( 12)  0.1917 ( 13) -0.1618 ( 15) -0.1621 ( 16)
           0.1039 ( 20)  0.1521 ( 27) -0.1688 ( 29)  0.1083 ( 39)  0.1429 ( 49)
          -0.1441 ( 50) -0.1540 ( 54) -0.1542 ( 55)  0.1691 ( 56)  0.1627 ( 57)
          -0.1064 ( 64) -0.1022 ( 65)  0.1434 ( 69)  0.1029 ( 70)  0.1579 ( 72)
           0.1230 ( 73) -0.1095 ( 76) -0.1151 ( 78) -0.1280 ( 81) -0.1307 (101)
          -0.1307 (107) -0.1147 (111) -0.1175 (115) -0.1239 (116) -0.1052 (119)
 CRD 16=   0.1126 (  5) -0.1101 (  8)  0.3234 ( 12) -0.2863 ( 16)  0.1651 ( 18)
          -0.2082 ( 21) -0.1177 ( 27)  0.1176 ( 28)  0.1407 ( 29) -0.1424 ( 32)
           0.2328 ( 37)  0.1587 ( 40) -0.1579 ( 41)  0.1194 ( 43)  0.1542 ( 44)
          -0.1414 ( 45) -0.1013 ( 46) -0.2314 ( 47)  0.1411 ( 48) -0.1182 ( 51)
           0.1270 ( 66)  0.1005 ( 67) -0.1529 ( 68) -0.1233 ( 71) -0.1109 ( 72)
           0.1330 ( 75)  0.1104 ( 80)  0.1486 ( 86)  0.1441 ( 87)  0.1191 ( 88)
           0.1225 ( 91)  0.1020 (102)  0.1175 (104)
 CRD 17=  -0.1674 (  4)  0.1676 (  5) -0.3251 (  6)  0.1603 (  8) -0.1284 (  9)
          -0.1234 ( 11) -0.1284 ( 13) -0.1586 ( 14)  0.1124 ( 25)  0.1317 ( 26)
           0.1016 ( 38)  0.2319 ( 42)  0.1930 ( 49)  0.1686 ( 65) -0.1652 ( 69)
          -0.1148 ( 70) -0.1006 ( 71)  0.1453 ( 72) -0.1557 ( 78) -0.1099 ( 81)
          -0.1219 ( 82) -0.1750 ( 83) -0.1383 ( 84) -0.1305 ( 85)  0.1103 ( 95)
           0.1664 ( 96)  0.1100 ( 97)  0.1097 ( 98) -0.1706 ( 99)  0.1642 (106)
          -0.1175 (109) -0.1033 (111)  0.1124 (116)  0.1101 (117) -0.1035 (120)
           0.1077 (122)
 CRD 18=   0.4451 ( 12) -0.3038 ( 14)  0.3047 ( 16) -0.1855 ( 18)  0.1777 ( 19)
          -0.2676 ( 21) -0.1158 ( 29)  0.1288 ( 38)  0.1159 ( 40)  0.1342 ( 41)
          -0.1212 ( 43) -0.1541 ( 48)  0.1083 ( 54) -0.1158 ( 63) -0.1484 ( 80)
          -0.1268 ( 92) -0.1277 ( 93) -0.1174 (107) -0.1329 (114) -0.1260 (115)
 CRD 19=   0.1271 (  4) -0.1414 (  5)  0.1443 (  6) -0.1670 ( 14)  0.4034 ( 16)
          -0.2337 ( 18)  0.1118 ( 19)  0.1234 ( 25)  0.1451 ( 29) -0.1192 ( 34)
          -0.2128 ( 41)  0.2024 ( 48)  0.1883 ( 63)  0.1095 ( 69)  0.1088 ( 71)
           0.1870 ( 80)  0.1234 ( 89)  0.1328 ( 90) -0.1227 ( 94)  0.1049 (101)
           0.1070 (103)  0.1661 (104)  0.1311 (110)  0.1056 (113)  0.1894 (114)
           0.1843 (115) -0.1203 (119) -0.1037 (120)
 CRD 20=  -0.2269 (  4)  0.1717 (  5) -0.2154 (  8)  0.1820 (  9) -0.1836 ( 12)
           0.1310 ( 16)  0.1128 ( 25) -0.1366 ( 34)  0.1094 ( 36)  0.1220 ( 41)
          -0.2137 ( 42)  0.1065 ( 44) -0.1421 ( 48)  0.1403 ( 49) -0.1159 ( 63)
          -0.2089 ( 65) -0.1200 ( 69) -0.1101 ( 72)  0.1115 ( 75) -0.1525 ( 78)
          -0.1181 ( 80) -0.1026 ( 83)  0.1154 ( 90)  0.1464 ( 92)  0.1131 ( 93)
           0.1798 (103)  0.2252 (104)  0.1920 (110) -0.1611 (111) -0.1267 (114)
          -0.1192 (115) -0.2121 (116)  0.1503 (121)
 CRD 21=   0.2933 (  4) -0.1980 (  5)  0.3597 (  6) -0.2532 (  8)  0.3070 (  9)
           0.1405 ( 27) -0.1465 ( 28) -0.1353 ( 32) -0.1142 ( 62) -0.1034 ( 72)
           0.1245 ( 77) -0.1049 ( 82) -0.1276 ( 83) -0.1515 ( 84) -0.1239 ( 85)
          -0.1024 ( 91)  0.1900 ( 94)  0.1302 ( 95)  0.1463 ( 96)  0.1223 ( 97)
          -0.1230 ( 99) -0.1046 (100) -0.1154 (101)  0.1345 (106) -0.1003 (109)
           0.1369 (119)  0.1105 (122)
 CRD 22=   0.2547 (  4)  0.1619 (  5)  0.1672 (  6)  0.1255 (  9) -0.2322 ( 14)
          -0.1018 ( 25) -0.1212 ( 28) -0.1001 ( 34) -0.1001 ( 41)  0.1563 ( 42)
          -0.1147 ( 48)  0.2053 ( 49)  0.1008 ( 54)  0.1958 ( 63)  0.2049 ( 65)
          -0.2255 ( 78) -0.2107 ( 80)  0.1061 ( 83)  0.1808 ( 84) -0.1716 ( 94)
          -0.1362 ( 96) -0.1164 ( 97)  0.1100 ( 99) -0.1343 (106) -0.1545 (111)
          -0.1310 (112) -0.1209 (113) -0.1397 (114)  0.1283 (115)  0.1374 (116)
          -0.1107 (119)  0.1197 (120) -0.1145 (122)
 CRD 23=  -0.5609 (  4) -0.4790 (  5)  0.2551 (  9) -0.1669 ( 14)  0.1648 ( 21)
           0.1026 ( 27) -0.1048 ( 32) -0.1941 ( 59)  0.1149 ( 86)  0.1499 ( 87)
           0.1132 ( 88)  0.1045 (100)  0.1099 (107)  0.1449 (108)  0.1018 (112)
          -0.1005 (113)  0.1590 (117)  0.1240 (118)
 CRD 24=   0.3880 (  5)  0.2300 (  8)  0.5610 (  9) -0.1680 ( 18)  0.1020 ( 21)
          -0.1506 ( 27) -0.1323 ( 32)  0.1063 ( 59)  0.1430 ( 60)  0.1706 ( 87)
           0.1982 ( 91)  0.1964 (101)  0.1655 (108)  0.1194 (112)  0.2260 (113)
           0.1725 (117)
 CRD 25=  -0.2632 (  5)  0.6571 (  8)  0.2661 (  9) -0.1701 ( 21) -0.1465 ( 29)
           0.1822 ( 60)  0.1540 ( 63) -0.2124 ( 86) -0.2151 (107) -0.1035 (113)
           0.1379 (115) -0.2199 (118)
 CRD 26=  -0.2709 (  4)  0.2178 (  6) -0.1060 (  9)  0.3210 ( 14) -0.1806 ( 18)
          -0.1311 ( 21)  0.1027 ( 28)  0.1234 ( 42)  0.1211 ( 49)  0.1496 ( 63)
           0.1354 ( 64)  0.2699 ( 65) -0.3032 ( 78) -0.1428 ( 79) -0.1847 ( 80)
          -0.1107 ( 87)  0.1853 ( 88)  0.1026 ( 91)  0.1903 (100)  0.1076 (101)
          -0.1148 (108) -0.2078 (111)  0.2039 (112)  0.1212 (113)  0.1765 (116)
          -0.1074 (117)
 CRD 27=  -0.1528 ( 12) -0.1126 ( 16) -0.1803 ( 25) -0.1304 ( 34) -0.1198 ( 66)
          -0.2607 ( 82) -0.1442 ( 83)  0.2397 ( 84)  0.1387 ( 85) -0.1304 ( 89)
          -0.1770 ( 90)  0.1053 ( 92) -0.1952 ( 94) -0.1132 ( 95)  0.1803 ( 96)
           0.3041 ( 97) -0.1064 ( 99) -0.2862 (103)  0.1888 (104)  0.1316 (106)
          -0.2229 (109)  0.1485 (110) -0.1505 (119)  0.1947 (120) -0.2396 (121)
           0.2554 (122)
 CRD 28=   0.1564 ( 10)  0.3954 ( 12) -0.2716 ( 16) -0.4083 ( 18) -0.2210 ( 19)
           0.2788 ( 21) -0.1098 ( 34) -0.1140 ( 37) -0.2419 ( 39)  0.1206 ( 47)
           0.2865 ( 52)  0.2450 ( 55) -0.1061 ( 56) -0.2820 ( 58)
 CRD 29=  -0.2018 ( 10) -0.1363 ( 14) -0.2220 ( 15) -0.3495 ( 16)  0.6261 ( 19)
           0.1189 ( 20)  0.2326 ( 21)  0.1322 ( 39)  0.2628 ( 50) -0.2339 ( 56)
          -0.1049 ( 58)
 CRD 30=   0.1558 ( 12)  0.2362 ( 14)  0.1109 ( 16) -0.1200 ( 41) -0.1063 ( 48)
           0.1273 ( 61)  0.1705 ( 63) -0.2323 ( 67)  0.2455 ( 74) -0.1288 ( 76)
          -0.1805 ( 80)  0.2287 ( 82) -0.2517 ( 89)  0.2458 ( 93) -0.2311 ( 97)
          -0.2445 ( 99)  0.1807 (102) -0.1584 (105)  0.2495 (106)  0.1367 (110)
          -0.1927 (114)  0.1758 (115) -0.1422 (121)
 CRD 31=  -0.1040 (  9) -0.2418 ( 11) -0.3165 ( 12)  0.2548 ( 13)  0.2681 ( 16)
          -0.2799 ( 17) -0.2382 ( 18)  0.2647 ( 20)  0.3110 ( 21)  0.2389 ( 37)
          -0.2295 ( 47)  0.2029 ( 52) -0.1790 ( 58) -0.1049 (101)
 CRD 32=   0.2722 (  4) -0.2705 (  5) -0.4305 (  6)  0.2098 (  7) -0.1484 (  8)
           0.2118 (  9) -0.1764 ( 10)  0.2975 ( 14) -0.2943 ( 18)  0.1035 ( 19)
           0.1678 ( 20) -0.1484 ( 21)  0.1365 ( 22)  0.1132 ( 39)  0.1176 ( 54)
           0.1010 ( 84)  0.1127 (118)
 CRD 33=   0.3397 (  3)  0.1911 (  5) -0.1360 (  6) -0.2899 (  7) -0.2390 (  8)
           0.1162 (  9)  0.1070 ( 14) -0.1008 ( 21) -0.3291 ( 22)  0.1030 ( 27)
          -0.1147 ( 32)  0.3568 ( 33) -0.1200 ( 58) -0.1830 ( 59)  0.1451 ( 60)
          -0.1335 ( 86) -0.1617 ( 91) -0.1608 (101) -0.1498 (107)  0.1016 (111)
          -0.1553 (113)  0.1243 (114)  0.1105 (115)  0.1102 (117)
 CRD 34=   0.1238 (  7)  0.2426 ( 10) -0.1493 ( 11)  0.1008 ( 13) -0.2765 ( 15)
           0.1079 ( 16)  0.2616 ( 18)  0.1184 ( 19) -0.1910 ( 20) -0.2012 ( 21)
           0.1084 ( 22)  0.1987 ( 37) -0.1990 ( 39) -0.1267 ( 44)  0.1280 ( 46)
          -0.1951 ( 47)  0.2111 ( 50)  0.1529 ( 52) -0.1164 ( 54)  0.2840 ( 55)
          -0.2806 ( 56)  0.1212 ( 57) -0.1766 ( 58)  0.1161 ( 69)  0.1118 ( 72)
           0.1215 (113)  0.1241 (118)
 CRD 35=  -0.1798 (  6) -0.1985 ( 10) -0.1640 ( 11)  0.2662 ( 12) -0.1884 ( 13)
           0.2119 ( 14)  0.2686 ( 16) -0.2660 ( 17)  0.3284 ( 18)  0.2309 ( 19)
          -0.1953 ( 20)  0.4283 ( 21)  0.1010 ( 67) -0.1275 ( 82)  0.1226 ( 97)
          -0.1126 (117)
 CRD 36=  -0.1350 (  3) -0.1171 (  4)  0.4305 (  6)  0.3686 ( 14) -0.1495 ( 15)
           0.1886 ( 19)  0.1239 ( 26) -0.1117 ( 34)  0.1176 ( 41)  0.1053 ( 48)
           0.1053 ( 54)  0.1073 ( 57) -0.1479 ( 69)  0.1608 ( 72)  0.1156 ( 87)
          -0.1178 ( 88) -0.1175 ( 94)  0.1058 (111) -0.1878 (112) -0.1176 (113)
           0.1534 (114) -0.1586 (115)  0.1774 (117)  0.1060 (118)
 CRD 37=  -0.1134 (  5) -0.1699 (  8)  0.1687 (  9) -0.2011 ( 14)  0.1432 ( 18)
           0.1585 ( 21) -0.1072 ( 29)  0.1295 ( 42)  0.1280 ( 49)  0.1115 ( 65)
           0.1103 ( 74) -0.1072 ( 78) -0.2424 ( 81)  0.2079 ( 82) -0.1027 ( 85)
          -0.1283 ( 86) -0.2272 ( 97)  0.2519 ( 98) -0.1009 ( 99)  0.1010 (101)
          -0.1371 (107)  0.1758 (110)  0.1044 (111)  0.1045 (113)  0.2668 (114)
          -0.2000 (115) -0.1071 (118) -0.1813 (121) -0.1194 (122)
 CRD 38=   0.1464 (  4) -0.1107 (  5)  0.1348 (  7) -0.1014 ( 11)  0.1424 ( 17)
          -0.1925 ( 20)  0.1485 ( 25)  0.1397 ( 28) -0.1671 ( 32) -0.1657 ( 34)
           0.1324 ( 41)  0.1464 ( 42)  0.1787 ( 44) -0.1319 ( 46) -0.1071 ( 48)
          -0.1207 ( 49)  0.1063 ( 58) -0.1277 ( 63)  0.1267 ( 65) -0.1081 ( 67)
          -0.1034 ( 69) -0.1206 ( 72)  0.1047 ( 78) -0.1210 ( 80) -0.1730 ( 84)
          -0.1494 ( 89) -0.1578 ( 93) -0.1427 ( 94)  0.1225 ( 99)  0.1944 (103)
           0.2124 (104)  0.1532 (106)  0.1570 (109)  0.1048 (110)  0.1012 (111)
          -0.1244 (114) -0.1054 (115)  0.1489 (116) -0.1159 (118) -0.1789 (119)
          -0.1570 (120)  0.1151 (122)
 CRD 39=  -0.1213 (  7) -0.2516 ( 11)  0.1087 ( 12)  0.2589 ( 13)  0.4486 ( 17)
          -0.1982 ( 18) -0.3575 ( 20)  0.2298 ( 21)  0.1747 ( 37)  0.1393 ( 40)
          -0.1867 ( 47)  0.1068 ( 50) -0.1019 ( 51) -0.2210 ( 52)  0.2605 ( 58)
           0.1098 (119)  0.1176 (120)
 CRD 40=   0.1628 ( 10)  0.1567 ( 13) -0.1885 ( 14)  0.1649 ( 15) -0.2406 ( 17)
          -0.1435 ( 18)  0.4138 ( 19) -0.3068 ( 20) -0.1141 ( 38) -0.1407 ( 40)
          -0.1297 ( 50) -0.1817 ( 51) -0.2224 ( 52)  0.3325 ( 53)  0.2342 ( 55)
           0.3103 ( 56) -0.1095 ( 58)
 CRD 41=   0.1088 (  3) -0.1901 (  5) -0.1045 (  8) -0.1305 (  9)  0.1968 ( 10)
          -0.1494 ( 12) -0.1344 ( 20)  0.1163 ( 23) -0.1386 ( 27)  0.1041 ( 36)
           0.1195 ( 38) -0.1189 ( 39) -0.1420 ( 45)  0.1117 ( 59)  0.2080 ( 60)
           0.1185 ( 61)  0.1125 ( 63) -0.1005 ( 69) -0.1166 ( 76) -0.1274 ( 82)
           0.1642 ( 87)  0.1407 ( 89)  0.1446 ( 94)  0.1464 ( 97)  0.1544 (101)
           0.1786 (102) -0.1614 (104) -0.1495 (105) -0.1308 (106) -0.1753 (107)
          -0.1347 (109) -0.1472 (110) -0.1506 (116)  0.1033 (117) -0.1019 (118)
           0.1749 (120)  0.1677 (121)
 CRD 42=  -0.1107 (  3) -0.1185 (  4) -0.1978 (  8)  0.2318 (  9) -0.2131 ( 10)
           0.2802 ( 15) -0.1046 ( 18)  0.1097 ( 25) -0.1342 ( 29)  0.1133 ( 32)
          -0.1354 ( 33) -0.1182 ( 44)  0.1192 ( 46) -0.1003 ( 49) -0.1457 ( 54)
           0.1143 ( 56)  0.1269 ( 57)  0.1488 ( 65)  0.1237 ( 69)  0.2036 ( 72)
           0.1694 ( 78) -0.1888 ( 84) -0.1483 ( 86) -0.1414 ( 87) -0.1155 ( 88)
          -0.1260 ( 94)  0.1001 ( 97)  0.1211 (102)  0.1813 (111)  0.1005 (116)
          -0.2040 (119)  0.1177 (121)
 CRD 43=  -0.2453 (  7)  0.1543 (  9) -0.1365 ( 11) -0.1015 ( 21) -0.1099 ( 31)
           0.1458 ( 32) -0.1885 ( 57) -0.1420 ( 60) -0.1266 ( 62)  0.1243 ( 66)
           0.1360 ( 68) -0.1424 ( 74)  0.1215 ( 75) -0.1494 ( 76) -0.1213 ( 81)
          -0.1221 ( 87)  0.1312 ( 90)  0.1169 ( 92) -0.1469 ( 93)  0.1178 ( 98)
           0.2017 ( 99)  0.1284 (103)  0.1015 (104) -0.2159 (105)  0.1638 (106)
           0.1607 (107)  0.1692 (109) -0.1623 (110)  0.1461 (111) -0.2073 (117)
           0.1149 (120)  0.1995 (122)
 CRD 44=   0.2666 (  3) -0.1808 (  4) -0.1019 (  5) -0.1313 ( 10) -0.1387 ( 16)
           0.1046 ( 18)  0.1014 ( 21) -0.1405 ( 28) -0.1024 ( 43)  0.1030 ( 51)
           0.1223 ( 54)  0.1024 ( 57)  0.2529 ( 59) -0.1032 ( 61)  0.1064 ( 71)
           0.1180 ( 75) -0.1220 ( 77)  0.1213 ( 78)  0.1610 ( 81) -0.1052 ( 83)
          -0.1926 ( 88) -0.1609 ( 98)  0.1950 (101) -0.2012 (102)  0.1177 (105)
           0.1244 (106)  0.1773 (109) -0.1178 (110) -0.1782 (112) -0.1685 (114)
           0.1791 (115)  0.1442 (116) -0.1164 (120)
 CRD 45=   0.2884 (  3) -0.1117 (  4) -0.1460 (  6)  0.1475 (  8) -0.1213 (  9)
          -0.2532 ( 11)  0.1234 ( 12) -0.1254 ( 13)  0.1091 ( 14)  0.2108 ( 15)
          -0.1347 ( 26) -0.1283 ( 28) -0.1773 ( 32)  0.1390 ( 33) -0.1322 ( 34)
           0.1013 ( 38)  0.1079 ( 39) -0.1096 ( 40)  0.1999 ( 46) -0.1215 ( 47)
          -0.1299 ( 54)  0.1801 ( 59) -0.1056 ( 63)  0.1210 ( 69) -0.1512 ( 72)
          -0.1174 ( 73) -0.1834 ( 88) -0.1433 (100)  0.1110 (107)  0.1547 (108)
           0.1732 (110)  0.1934 (113)
 CRD 46=  -0.1267 (  4)  0.1949 (  5) -0.1194 (  6)  0.2201 (  7)  0.1094 ( 10)
          -0.1401 ( 12) -0.2839 ( 13)  0.1118 ( 15)  0.1164 ( 16)  0.1455 ( 17)
          -0.1375 ( 18) -0.1658 ( 20)  0.1527 ( 22) -0.1141 ( 26)  0.1668 ( 27)
          -0.1621 ( 28) -0.1375 ( 37)  0.1042 ( 44) -0.1157 ( 45)  0.1192 ( 50)
          -0.1521 ( 51) -0.1232 ( 54)  0.1066 ( 60)  0.2016 ( 69)  0.1333 ( 70)
           0.1049 ( 73) -0.1018 ( 76)  0.1377 ( 87) -0.1323 ( 93) -0.1137 (100)
          -0.1568 (101)  0.1182 (106)  0.1510 (109) -0.1129 (110) -0.1915 (121)
 CRD 47=   0.2144 (  4)  0.1404 (  8) -0.1769 (  9) -0.2282 ( 10)  0.2447 ( 15)
          -0.1094 ( 16) -0.1051 ( 22) -0.1224 ( 23)  0.1367 ( 28)  0.1107 ( 36)
          -0.1502 ( 42) -0.1292 ( 44)  0.1420 ( 46) -0.1425 ( 59)  0.1018 ( 64)
          -0.1004 ( 65) -0.1512 ( 70) -0.1086 ( 73)  0.1346 ( 75) -0.1409 ( 78)
           0.1007 ( 92)  0.1218 ( 98)  0.1707 (100)  0.1051 (106)  0.1293 (109)
          -0.1718 (110)  0.2301 (112) -0.1311 (116)  0.2064 (117)  0.2106 (118)
          -0.1106 (121)
 CRD 48=  -0.1682 (  5)  0.1323 (  7) -0.1776 (  8)  0.1869 ( 12) -0.1016 ( 14)
           0.1987 ( 16)  0.1104 ( 24)  0.1334 ( 26) -0.1444 ( 27) -0.1317 ( 29)
          -0.1195 ( 30)  0.1082 ( 35) -0.1682 ( 38)  0.1609 ( 43)  0.1257 ( 45)
           0.1213 ( 50) -0.1073 ( 51)  0.2025 ( 60) -0.1016 ( 65)  0.1307 ( 66)
           0.1566 ( 68) -0.2034 ( 71) -0.1695 ( 74) -0.2252 ( 86)  0.1627 ( 91)
           0.1126 ( 92) -0.1134 (100)  0.2017 (108)  0.1293 (115) -0.1599 (118)
 CRD 49=  -0.1652 (  3)  0.1760 (  5)  0.2578 (  7) -0.1094 (  8) -0.2110 ( 11)
           0.1488 ( 12)  0.2315 ( 13) -0.1692 ( 16)  0.1107 ( 22)  0.1498 ( 27)
          -0.1348 ( 43)  0.1040 ( 45) -0.1073 ( 47) -0.1006 ( 50)  0.1182 ( 51)
           0.1537 ( 54) -0.1300 ( 57) -0.1247 ( 59)  0.1711 ( 60) -0.1314 ( 67)
           0.1242 ( 68)  0.2250 ( 71) -0.1192 ( 74) -0.1631 ( 86)  0.1013 ( 90)
          -0.1399 ( 91)  0.1684 (100)  0.2078 (108) -0.1382 (113) -0.1652 (118)
 CRD 50=   0.1175 (  4)  0.1134 (  6) -0.1109 (  8)  0.1799 ( 10) -0.1887 ( 11)
           0.1668 ( 14)  0.1338 ( 15) -0.1836 ( 23)  0.1016 ( 24)  0.1451 ( 26)
           0.1387 ( 28)  0.1144 ( 32)  0.1270 ( 35) -0.1971 ( 36)  0.1310 ( 38)
           0.1307 ( 44)  0.1454 ( 46) -0.1137 ( 47)  0.2280 ( 62)  0.1081 ( 68)
          -0.1989 ( 70)  0.1821 ( 73) -0.2226 ( 77) -0.1146 ( 91)  0.1012 ( 96)
          -0.1006 (103)  0.1454 (112) -0.1830 (117) -0.1796 (118)  0.1354 (119)
          -0.1302 (122)
 CRD 51=  -0.1998 ( 10)  0.2092 ( 15)  0.1483 ( 17) -0.1542 ( 20) -0.1211 ( 22)
           0.1444 ( 24)  0.1326 ( 30) -0.2099 ( 31)  0.1131 ( 34) -0.2097 ( 36)
          -0.1511 ( 42)  0.1563 ( 45)  0.1572 ( 49)  0.1205 ( 52) -0.1263 ( 58)
          -0.1140 ( 61) -0.1018 ( 62)  0.1007 ( 66)  0.1344 ( 67)  0.1666 ( 68)
           0.1066 ( 70)  0.1442 ( 71)  0.1164 ( 73)  0.2007 ( 74) -0.1608 ( 76)
          -0.1716 ( 77)  0.1555 ( 83) -0.1447 ( 92)  0.1082 ( 97)  0.1090 (107)
           0.1104 (108) -0.1541 (109)  0.2174 (110)
 CRD 52=   0.1858 ( 61) -0.1273 ( 62) -0.1467 ( 66)  0.1392 ( 67)  0.1057 ( 75)
          -0.2155 ( 76)  0.1245 ( 80)  0.1031 ( 81) -0.2192 ( 83) -0.1565 ( 85)
           0.1842 ( 89) -0.1017 ( 90) -0.1178 ( 93)  0.1768 ( 95)  0.2762 ( 96)
           0.1566 (102) -0.1745 (103)  0.1285 (104) -0.1298 (105)  0.2213 (109)
          -0.1460 (111)  0.1177 (116) -0.2572 (119)  0.2609 (120)  0.1114 (121)
          -0.3467 (122)
 CRD 53=  -0.1044 (  9)  0.1099 ( 29) -0.1134 ( 30) -0.1482 ( 31)  0.2439 ( 63)
           0.2686 ( 64) -0.1026 ( 66)  0.1094 ( 67)  0.1021 ( 70) -0.2573 ( 79)
          -0.2975 ( 80) -0.1038 ( 81) -0.1686 ( 83) -0.1632 ( 90)  0.2067 ( 96)
           0.1213 ( 98)  0.1198 (109)  0.3416 (111) -0.1285 (115) -0.2835 (116)
           0.1224 (121) -0.1871 (122)
 CRD 54=  -0.1571 ( 15) -0.3632 ( 23) -0.1035 ( 30) -0.2992 ( 36)  0.1447 ( 43)
           0.1226 ( 57)  0.2654 ( 61) -0.1923 ( 76)  0.1160 ( 83) -0.2848 ( 85)
           0.2263 ( 90) -0.1299 ( 92)  0.2608 ( 95) -0.1655 ( 96) -0.1429 (109)
          -0.1510 (119)  0.1922 (120) -0.1976 (121)  0.2071 (122)

 THE DETERMINANT OF THE G MATRIX IS 10**(   -20)


                     --------------------
                     INTERNAL COORDINATES
                     --------------------

                 - - ATOMS - -         COORDINATE      COORDINATE
 NO.   TYPE    I  J  K  L  M  N        (BOHR,RAD)       (ANG,DEG)
 ----------------------------------------------------------------
   1 STRETCH   1  6                     3.7843543       2.0025942
   2 STRETCH   3  4                     3.7763027       1.9983335
   3 STRETCH   1  2                     2.5663651       1.3580620
   4 STRETCH   1 12                     2.0751662       1.0981308
   5 STRETCH   1 11                     2.0654297       1.0929784
   6 STRETCH   2 13                     2.0545593       1.0872261
   7 STRETCH   2  3                     2.8407525       1.5032616
   8 STRETCH   3 14                     2.0653111       1.0929157
   9 STRETCH   3 15                     2.0655111       1.0930215
  10 STRETCH   4  9                     2.8705243       1.5190162
  11 STRETCH   4  5                     2.8333993       1.4993705
  12 STRETCH   4 16                     2.0629953       1.0916902
  13 STRETCH   5  6                     2.5748071       1.3625293
  14 STRETCH   5 17                     2.0504546       1.0850539
  15 STRETCH   6  7                     2.7970305       1.4801249
  16 STRETCH   6 18                     2.0718355       1.0963682
  17 STRETCH   7  8                     2.5350146       1.3414721
  18 STRETCH   7 19                     2.0534107       1.0866182
  19 STRETCH   8 20                     2.0433971       1.0813193
  20 STRETCH   8  9                     2.8103407       1.4871683
  21 STRETCH   9 10                     2.3231588       1.2293628
  22 BEND      1  2 13                  2.0897237     119.7323471
  23 BEND      1  6  7                  1.8498466     105.9884052
  24 BEND      1  6  5                  1.7596644     100.8213413
  25 BEND      1  6 18                  1.6594405      95.0789358
  26 BEND      1  2  3                  2.1060730     120.6690963
  27 BEND      2  1 12                  2.0552881     117.7593361
  28 BEND      2  1 11                  2.0620764     118.1482732
  29 BEND      2  3 15                  1.9891675     113.9709001
  30 BEND      2  3  4                  1.8538736     106.2191305
  31 BEND      2  1  6                  1.8707504     107.1860997
  32 BEND      2  3 14                  1.9788096     113.3774404
  33 BEND      3  2 13                  2.0486268     117.3776681
  34 BEND      3  4 16                  1.8520988     106.1174461
  35 BEND      3  4  5                  1.8158777     104.0421302
  36 BEND      3  4  9                  1.8069618     103.5312828
  37 BEND      4  5 17                  2.0750964     118.8942650
  38 BEND      4  5  6                  2.0347313     116.5815139
  39 BEND      4  9 10                  2.1406793     122.6518909
  40 BEND      4  9  8                  2.0530861     117.6331684
  41 BEND      4  3 15                  1.8301380     104.8591822
  42 BEND      4  3 14                  1.8158895     104.0428031
  43 BEND      5  6  7                  2.0282610     116.2107955
  44 BEND      5  4 16                  2.0159547     115.5056961
  45 BEND      5  4  9                  1.9687907     112.8034003
  46 BEND      5  6 18                  2.0723432     118.7365192
  47 BEND      6  5 17                  2.1096622     120.8747383
  48 BEND      6  1 12                  1.5057342      86.2722174
  49 BEND      6  1 11                  1.8066263     103.5120630
  50 BEND      6  7 19                  2.0337916     116.5276729
  51 BEND      6  7  8                  2.1500682     123.1898343
  52 BEND      7  8 20                  2.1550570     123.4756721
  53 BEND      7  8  9                  2.0770275     119.0049106
  54 BEND      7  6 18                  2.0089507     115.1043972
  55 BEND      8  9 10                  2.0880002     119.6336014
  56 BEND      8  7 19                  2.0985116     120.2358594
  57 BEND      9  4 16                  1.9783550     113.3513911
  58 BEND      9  8 20                  2.0510385     117.5158479
  59 BEND     11  1 12                  2.0348604     116.5889107
  60 BEND     14  3 15                  1.9754306     113.1838348
  61 TORSION   1  6  5 17               1.4936862      85.5819158
  62 TORSION   1  6  5  4              -1.2679280     -72.6469212
  63 TORSION   1  2  3 15              -1.0907347     -62.4944953
  64 TORSION   1  2  3  4               0.9152901      52.4422610
  65 TORSION   1  2  3 14               2.8987455     166.0858810
  66 TORSION   1  6  7  8               1.6210818      92.8811440
  67 TORSION   1  6  7 19              -1.5638482     -89.6019001
  68 TORSION   2  3  4  9               1.2784433      73.2494078
  69 TORSION   2  1  6 18              -3.0825718    -176.6183523
  70 TORSION   2  1  6  5               1.0964859      62.8240146
  71 TORSION   2  1  6  7              -1.0241307     -58.6783696
  72 TORSION   2  3  4 16              -2.9173687    -167.1529145
  73 TORSION   2  3  4  5              -0.7828960     -44.8566382
  74 TORSION   3  4  9 10               1.5340235      87.8930719
  75 TORSION   3  4  9  8              -1.5500531     -88.8115001
  76 TORSION   3  4  5 17              -1.5869744     -90.9269359
  77 TORSION   3  4  5  6               1.1824837      67.7513232
  78 TORSION   3  2  1 11              -3.0637914    -175.5423173
  79 TORSION   3  2  1  6              -1.0342161     -59.2562173
  80 TORSION   3  2  1 12               0.6225679      35.6705130
  81 TORSION   4  3  2 13              -1.9300268    -110.5823880
  82 TORSION   4  9  8 20               3.1012466     177.6883441
  83 TORSION   4  9  8  7              -0.0287708      -1.6484453
  84 TORSION   4  5  6 18              -3.0478436    -174.6285760
  85 TORSION   4  5  6  7               0.7216743      41.3488903
  86 TORSION   5  4  3 15               1.3288249      76.1360586
  87 TORSION   5  4  3 14              -2.8758145    -164.7720316
  88 TORSION   5  6  1 11              -2.9944930    -171.5718085
  89 TORSION   5  6  7 19               2.7816221     159.3752062
  90 TORSION   5  6  7  8              -0.3166333     -18.1417497
  91 TORSION   5  6  1 12              -0.9617998     -55.1070704
  92 TORSION   5  4  9  8               0.4017999      23.0214405
  93 TORSION   5  4  9 10              -2.7973088    -160.2739875
  94 TORSION   6  5  4 16              -3.0783289    -176.3752552
  95 TORSION   6  5  4  9              -0.7638648     -43.7662275
  96 TORSION   6  7  8  9              -0.0376261      -2.1558169
  97 TORSION   6  7  8 20               3.1162740     178.5493478
  98 TORSION   6  1  2 13               1.8041881     103.3723655
  99 TORSION   7  8  9 10              -3.1146518    -178.4564051
 100 TORSION   7  6  1 11               1.1680757      66.9258073
 101 TORSION   7  6  1 12              -3.0824165    -176.6094546
 102 TORSION   7  6  5 17              -2.7998969    -160.4222727
 103 TORSION   8  7  6 18              -2.8531187    -163.4716594
 104 TORSION   8  9  4 16               2.7344963     156.6750969
 105 TORSION   9  4  5 17               2.7498625     157.5555134
 106 TORSION   9  8  7 19              -3.1343375    -179.5843124
 107 TORSION   9  4  3 15              -2.8930210    -165.7578954
 108 TORSION   9  4  3 14              -0.8144751     -46.6659856
 109 TORSION  10  9  8 20               0.0153656       0.8803842
 110 TORSION  10  9  4 16              -0.4646124     -26.6203311
 111 TORSION  11  1  2 13              -0.2253872     -12.9137344
 112 TORSION  11  1  6 18              -0.8903653     -51.0141754
 113 TORSION  12  1  6 18               1.1423278      65.4505627
 114 TORSION  12  1  2 13              -2.8222132    -161.7009042
 115 TORSION  13  2  3 15               2.3471337     134.4808558
 116 TORSION  13  2  3 14               0.0534286       3.0612320
 117 TORSION  14  3  4 16               1.2728982      72.9316921
 118 TORSION  15  3  4 16              -0.8056478     -46.1602177
 119 TORSION  16  4  5 17               0.4353983      24.9464857
 120 TORSION  17  5  6 18              -0.2862294     -16.3997390
 121 TORSION  18  6  7 19               0.2451367      14.0452965
 122 TORSION  19  7  8 20               0.0195626       1.1208523

     ------------------------------------------
     THE POINT GROUP IS C1 , NAXIS= 0, ORDER= 1
     ------------------------------------------

     DIMENSIONS OF THE SYMMETRY SUBSPACES ARE
 A   =   60

 ..... DONE SETTING UP THE RUN .....
 STEP CPU TIME =     0.13 TOTAL CPU TIME =          0.1 (      0.0 MIN)
 TOTAL WALL CLOCK TIME=          0.1 SECONDS, CPU UTILIZATION IS    92.86%


          -----------------------------
          STATIONARY POINT LOCATION RUN
          -----------------------------


           ** GEOMETRY CONSTRAINTS ARE BEING APPLIED. **

          TRANSFORMING DISPLACEMENT FROM INTERNALS TO CARTESIANS
          THE ROOT MEAN SQUARE ERROR IN ITERATION   1 IS   0.00000149
          THE ROOT MEAN SQUARE ERROR IN ITERATION   2 IS   0.00000000
 WARNING! THE RADIUS IN CARTESIANS IS    0.00947
 OBTAINING INITIAL HESSIAN, HESS=CALC    

     ---------------------------------
     HESSIAN MATRIX CONTROL PARAMETERS
     ---------------------------------
     METHOD=ANALYTIC   NVIB  =       2   VIBSIZ= 0.01000
     RDHESS=       F   PURIFY=       F   PRTIFC=       F
     VIBANL=       F   DECOMP=       F   PROJCT=       F
     SCLFAC= 1.00000   PRTSCN=       F   NPRT  =       0
     PULCOR=       F   NPUN  =       0   REDOVB=       T
     HSSTYP=GENERAL 
 Old integral subroutine is used

     ------------------------------
     CPHF RESPONSE SOLUTION OPTIONS
     ------------------------------
     POLAR  =       F     NWORD  =       0
     CPHF   =AO      

          ********************
          1 ELECTRON INTEGRALS
          ********************
 ...... END OF ONE-ELECTRON INTEGRALS ......
 STEP CPU TIME =     0.09 TOTAL CPU TIME =          0.2 (      0.0 MIN)
 TOTAL WALL CLOCK TIME=          0.2 SECONDS, CPU UTILIZATION IS    95.65%

          -------------
          GUESS OPTIONS
          -------------
          GUESS =HUCKEL            NORB  =       0          NORDER=       0
          MIX   =       F          PRTMO =       F          PUNMO =       F
          TOLZ  = 1.0E-08          TOLE  = 1.0E-05
          SYMDEN=       F          PURIFY=       F

 INITIAL GUESS ORBITALS GENERATED BY HUCKEL   ROUTINE.
 HUCKEL GUESS REQUIRES     53820 WORDS.

 SYMMETRIES FOR INITIAL GUESS ORBITALS FOLLOW.   BOTH SET(S).
    36 ORBITALS ARE OCCUPIED (   10 CORE ORBITALS).
    11=A       12=A       13=A       14=A       15=A       16=A       17=A   
    18=A       19=A       20=A       21=A       22=A       23=A       24=A   
    25=A       26=A       27=A       28=A       29=A       30=A       31=A   
    32=A       33=A       34=A       35=A       36=A       37=A       38=A   
    39=A       40=A       41=A       42=A       43=A       44=A       45=A   
    46=A   
 ...... END OF INITIAL ORBITAL SELECTION ......
 STEP CPU TIME =     0.04 TOTAL CPU TIME =          0.3 (      0.0 MIN)
 TOTAL WALL CLOCK TIME=          0.3 SECONDS, CPU UTILIZATION IS    96.30%

                    ----------------------
                    AO INTEGRAL TECHNOLOGY
                    ----------------------
     S,P,L SHELL ROTATED AXIS INTEGRALS, REPROGRAMMED BY
        KAZUYA ISHIMURA (IMS) AND JOSE SIERRA (SYNSTAR).
     S,P,D,L SHELL ROTATED AXIS INTEGRALS PROGRAMMED BY
        KAZUYA ISHIMURA (INSTITUTE FOR MOLECULAR SCIENCE).
     S,P,D,F,G SHELL TO TOTAL QUARTET ANGULAR MOMENTUM SUM 5,
        ERIC PROGRAM BY GRAHAM FLETCHER (ELORET AND NASA ADVANCED
        SUPERCOMPUTING DIVISION, AMES RESEARCH CENTER).
     S,P,D,F,G,L SHELL GENERAL RYS QUADRATURE PROGRAMMED BY
        MICHEL DUPUIS (PACIFIC NORTHWEST NATIONAL LABORATORY).

          --------------------
          2 ELECTRON INTEGRALS
          --------------------

 THE -PK- OPTION IS OFF, THE INTEGRALS ARE NOT IN SUPERMATRIX FORM.
 STORING   15000 INTEGRALS/RECORD ON DISK, USING 12 BYTES/INTEGRAL.
 TWO ELECTRON INTEGRAL EVALUATION REQUIRES   89821 WORDS OF MEMORY.
 SCHWARZ INEQUALITY OVERHEAD:      1797 INTEGRALS, T=        0.00
 II,JST,KST,LST =  1  1  1  1 NREC =         1 INTLOC =    1
 II,JST,KST,LST =  2  1  1  1 NREC =         1 INTLOC =    2
 II,JST,KST,LST =  3  1  1  1 NREC =         1 INTLOC =   34
 II,JST,KST,LST =  4  1  1  1 NREC =         1 INTLOC =  144
 II,JST,KST,LST =  5  1  1  1 NREC =         1 INTLOC = 1366
 II,JST,KST,LST =  6  1  1  1 NREC =         1 INTLOC = 1953
 II,JST,KST,LST =  7  1  1  1 NREC =         1 INTLOC = 6850
 II,JST,KST,LST =  8  1  1  1 NREC =         1 INTLOC = 8467
 II,JST,KST,LST =  9  1  1  1 NREC =         2 INTLOC = 5867
 II,JST,KST,LST = 10  1  1  1 NREC =         2 INTLOC = 9598
 II,JST,KST,LST = 11  1  1  1 NREC =         4 INTLOC = 4924
 II,JST,KST,LST = 12  1  1  1 NREC =         4 INTLOC =12060
 II,JST,KST,LST = 13  1  1  1 NREC =         7 INTLOC =12126
 II,JST,KST,LST = 14  1  1  1 NREC =         8 INTLOC = 8703
 II,JST,KST,LST = 15  1  1  1 NREC =        13 INTLOC = 6301
 II,JST,KST,LST = 16  1  1  1 NREC =        14 INTLOC = 9119
 II,JST,KST,LST = 17  1  1  1 NREC =        21 INTLOC =13767
 II,JST,KST,LST = 18  1  1  1 NREC =        23 INTLOC =10054
 II,JST,KST,LST = 19  1  1  1 NREC =        34 INTLOC = 3324
 II,JST,KST,LST = 20  1  1  1 NREC =        35 INTLOC =14625
 II,JST,KST,LST = 21  1  1  1 NREC =        48 INTLOC = 2679
 II,JST,KST,LST = 22  1  1  1 NREC =        52 INTLOC =   99
 II,JST,KST,LST = 23  1  1  1 NREC =        56 INTLOC = 1824
 II,JST,KST,LST = 24  1  1  1 NREC =        60 INTLOC =10213
 II,JST,KST,LST = 25  1  1  1 NREC =        65 INTLOC = 8110
 II,JST,KST,LST = 26  1  1  1 NREC =        70 INTLOC = 8618
 II,JST,KST,LST = 27  1  1  1 NREC =        76 INTLOC =  641
 II,JST,KST,LST = 28  1  1  1 NREC =        81 INTLOC =10824
 II,JST,KST,LST = 29  1  1  1 NREC =        87 INTLOC = 8250
 II,JST,KST,LST = 30  1  1  1 NREC =        93 INTLOC =11613
 SCHWARZ INEQUALITY TEST SKIPPED       23916 INTEGRAL BLOCKS.
 TOTAL NUMBER OF NONZERO TWO-ELECTRON INTEGRALS =             1490520
        100 INTEGRAL RECORDS WERE STORED ON DISK FILE  8.
  ...... END OF TWO-ELECTRON INTEGRALS .....
 STEP CPU TIME =     0.37 TOTAL CPU TIME =          0.6 (      0.0 MIN)
 TOTAL WALL CLOCK TIME=          0.7 SECONDS, CPU UTILIZATION IS    96.92%

          --------------------------
                 RHF SCF CALCULATION
          --------------------------

     NUCLEAR ENERGY =       507.6067168555
     MAXIT =   30     NPUNCH=    2
     EXTRAP=T  DAMP=F  SHIFT=F  RSTRCT=F  DIIS=F  DEM=F  SOSCF=T
     DENSITY MATRIX CONV=  1.00E-05
     SOSCF WILL OPTIMIZE     864 ORBITAL ROTATIONS, SOGTOL=   0.250
     MEMORY REQUIRED FOR RHF ITERS=     59496 WORDS.

 ITER EX DEM     TOTAL ENERGY        E CHANGE  DENSITY CHANGE     ORB. GRAD
   1  0  0     -415.5099524776  -415.5099524776   0.520778638   0.000000000
          ---------------START SECOND ORDER SCF---------------
   2  1  0     -416.0209680823    -0.5110156048   0.317622617   0.059559135
   3  2  0     -416.0530651109    -0.0320970285   0.145016839   0.049769894
   4  3  0     -416.0870316892    -0.0339665783   0.029771957   0.006377829
   5  4  0     -416.0879850644    -0.0009533752   0.009466396   0.003219357
   6  5  0     -416.0881306480    -0.0001455837   0.002775084   0.000879150
   7  6  0     -416.0881520071    -0.0000213591   0.001049903   0.000265031
   8  7  0     -416.0881544320    -0.0000024249   0.000396007   0.000105293
   9  8  0     -416.0881549246    -0.0000004926   0.000197377   0.000033515
  10  9  0     -416.0881549876    -0.0000000630   0.000113104   0.000013333
  11 10  0     -416.0881549956    -0.0000000080   0.000026057   0.000003864
  12 11  0     -416.0881549967    -0.0000000010   0.000010622   0.000003143
  13 12  0     -416.0881549969    -0.0000000002   0.000005739   0.000000906
  14 13  0     -416.0881549969    -0.0000000000   0.000001870   0.000000241

          -----------------
          DENSITY CONVERGED
          -----------------
     TIME TO FORM FOCK OPERATORS=       0.3 SECONDS (       0.0 SEC/ITER)
     TIME TO SOLVE SCF EQUATIONS=       0.1 SECONDS (       0.0 SEC/ITER)

 FINAL RHF ENERGY IS     -416.0881549969 AFTER  14 ITERATIONS

          ------------
          EIGENVECTORS
          ------------

                      1          2          3          4          5
                  -20.2504   -11.1087   -11.0544   -11.0528   -11.0517
                     A          A          A          A          A   
    1  C  1  S   -0.000000   0.000037  -0.021559  -0.000278  -0.002594
    2  C  1  S    0.000004   0.000025  -0.003423  -0.000081   0.000040
    3  C  1  X    0.000001   0.000012  -0.002494  -0.000081  -0.000026
    4  C  1  Y    0.000002   0.000023  -0.000387  -0.000020  -0.000050
    5  C  1  Z    0.000002   0.000004  -0.000394  -0.000017   0.000029
    6  C  2  S    0.000001  -0.000094  -0.000769  -0.000186  -0.001553
    7  C  2  S   -0.000014  -0.000011   0.000214   0.001352  -0.005690
    8  C  2  X   -0.000004  -0.000066   0.000073   0.000036  -0.000202
    9  C  2  Y   -0.000005  -0.000017  -0.000200   0.000557  -0.002328
   10  C  2  Z   -0.000002   0.000017  -0.000014   0.000843  -0.003401
   11  C  3  S   -0.000008  -0.000467   0.002005  -0.223425   0.966862
   12  C  3  S    0.000034   0.000046   0.000163  -0.010278   0.033253
   13  C  3  X    0.000031  -0.000214   0.000018  -0.001913  -0.002291
   14  C  3  Y    0.000034  -0.000089  -0.000015  -0.000046  -0.000021
   15  C  3  Z   -0.000033   0.000218   0.000028  -0.000475  -0.000618
   16  C  4  S   -0.000024  -0.002019  -0.023724   0.966325   0.224203
   17  C  4  S    0.000271  -0.005559  -0.000784   0.034421   0.005422
   18  C  4  X    0.000008  -0.001638   0.000014   0.001334   0.002719
   19  C  4  Y    0.000425  -0.002604   0.000053  -0.000033   0.000037
   20  C  4  Z    0.000175   0.002672   0.000218   0.000041   0.000625
   21  C  5  S    0.000005  -0.000359   0.007931  -0.001161  -0.001213
   22  C  5  S    0.000012   0.000051  -0.007155  -0.005995  -0.001391
   23  C  5  X   -0.000044  -0.000078  -0.000250   0.001124   0.000304
   24  C  5  Y   -0.000021  -0.000044   0.001840  -0.003950  -0.000838
   25  C  5  Z    0.000062   0.000066   0.004331  -0.000393  -0.000073
   26  C  6  S    0.000003  -0.000331   0.991435   0.023615   0.003348
   27  C  6  S    0.000015  -0.000046   0.036846   0.001003   0.000203
   28  C  6  X    0.000012  -0.000009   0.001181   0.000091   0.000034
   29  C  6  Y   -0.000035  -0.000116   0.000844  -0.000020  -0.000004
   30  C  6  Z   -0.000007   0.000010   0.001152   0.000021   0.000023
   31  C  7  S    0.000007  -0.000405  -0.010229  -0.003647  -0.000422
   32  C  7  S    0.000017   0.000118  -0.006704  -0.000369  -0.000042
   33  C  7  X    0.000035  -0.000008   0.001418   0.000118   0.000006
   34  C  7  Y    0.000014  -0.000012   0.002633  -0.000030  -0.000003
   35  C  7  Z   -0.000078   0.000011  -0.003258  -0.000203  -0.000033
   36  C  8  S   -0.000026  -0.000833  -0.000685  -0.000736  -0.000076
   37  C  8  S    0.000372  -0.006016   0.000270   0.000150   0.000058
   38  C  8  X    0.000051   0.001302  -0.000021   0.000014  -0.000015
   39  C  8  Y    0.000485  -0.001894  -0.000109  -0.000067   0.000003
   40  C  8  Z   -0.000003  -0.003560   0.000107   0.000018   0.000021
   41  C  9  S    0.000557   0.992512   0.000292   0.002814   0.001187
   42  C  9  S   -0.007140   0.033146   0.000106  -0.005704  -0.001304
   43  C  9  X   -0.000326  -0.000040  -0.000034   0.001560   0.000390
   44  C  9  Y   -0.006262   0.000419   0.000084   0.002461   0.000528
   45  C  9  Z   -0.000735  -0.000373   0.000144  -0.002983  -0.000605
   46  O 10  S    0.994273   0.000182   0.000006  -0.000018  -0.000015
   47  O 10  S    0.025904  -0.005829  -0.000061   0.000240   0.000110
   48  O 10  X   -0.000285   0.000107   0.000002  -0.000051  -0.000045
   49  O 10  Y   -0.005483   0.001786   0.000039  -0.000148  -0.000068
   50  O 10  Z   -0.000674   0.000243  -0.000007   0.000140   0.000034
   51  H 11  S    0.000000   0.000001   0.000282   0.000015  -0.000052
   52  H 12  S   -0.000001  -0.000008   0.000073   0.000044  -0.000105
   53  H 13  S    0.000007  -0.000023   0.000018  -0.000012   0.000102
   54  H 14  S   -0.000010  -0.000286  -0.000012   0.001600  -0.006635
   55  H 15  S    0.000013  -0.000127  -0.000021   0.001594  -0.006641
   56  H 16  S   -0.000157  -0.000032   0.000039  -0.006717  -0.001480
   57  H 17  S   -0.000022  -0.000066   0.000074   0.000078   0.000044
   58  H 18  S   -0.000016  -0.000034  -0.006801  -0.000249  -0.000046
   59  H 19  S   -0.000024  -0.000061   0.000157  -0.000023  -0.000006
   60  H 20  S   -0.000215   0.000023  -0.000033  -0.000051  -0.000013

                      6          7          8          9         10
                  -11.0457   -11.0413   -11.0232   -11.0192   -11.0101
                     A          A          A          A          A   
    1  C  1  S   -0.006916   0.991859  -0.000177   0.001784  -0.008295
    2  C  1  S   -0.000246   0.036287   0.000030   0.000160  -0.007898
    3  C  1  X   -0.000117  -0.001324   0.000007  -0.000115   0.001828
    4  C  1  Y   -0.000167   0.001012   0.000036  -0.000316  -0.004331
    5  C  1  Z    0.000174   0.000141  -0.000008  -0.000314  -0.000128
    6  C  2  S   -0.000876   0.008943  -0.000856  -0.002250   0.992174
    7  C  2  S   -0.000057  -0.007279  -0.000079  -0.000019   0.035930
    8  C  2  X   -0.000171  -0.001798  -0.000094  -0.000109   0.001769
    9  C  2  Y   -0.000073   0.004258  -0.000025  -0.000018  -0.000938
   10  C  2  Z    0.000042   0.000192  -0.000003  -0.000046  -0.000226
   11  C  3  S   -0.000421   0.002575  -0.000103   0.000960   0.002389
   12  C  3  S    0.000014   0.000190   0.000032   0.000034  -0.005692
   13  C  3  X    0.000015  -0.000070   0.000011  -0.000119   0.000169
   14  C  3  Y   -0.000013   0.000101  -0.000004   0.000268   0.002356
   15  C  3  Z   -0.000027  -0.000052  -0.000013  -0.000015   0.003531
   16  C  4  S    0.003452   0.000366   0.000671   0.002537   0.000560
   17  C  4  S    0.000099   0.000056   0.000244  -0.005790   0.000025
   18  C  4  X   -0.000028   0.000055   0.000059  -0.001164   0.000007
   19  C  4  Y    0.000048  -0.000006  -0.000012   0.004058   0.000092
   20  C  4  Z    0.000149   0.000026  -0.000008   0.000499   0.000196
   21  C  5  S   -0.001430  -0.001527  -0.007931   0.992139   0.002283
   22  C  5  S   -0.000000  -0.000176  -0.000408   0.035954   0.000091
   23  C  5  X   -0.000082   0.000059  -0.000049  -0.001554   0.000104
   24  C  5  Y   -0.000099  -0.000040  -0.000125  -0.000589  -0.000015
   25  C  5  Z    0.000063  -0.000009   0.000159  -0.001641   0.000031
   26  C  6  S    0.011134   0.022536   0.000599  -0.007179   0.000625
   27  C  6  S   -0.005656  -0.001847   0.000428  -0.007820   0.000031
   28  C  6  X   -0.001555   0.002467   0.000082   0.000075   0.000075
   29  C  6  Y   -0.002703   0.000122   0.000064  -0.001619  -0.000267
   30  C  6  Z    0.002903   0.000602  -0.000072  -0.004382  -0.000031
   31  C  7  S    0.992024   0.006747  -0.015648   0.001480   0.000857
   32  C  7  S    0.035824   0.000150  -0.008420   0.000139  -0.000071
   33  C  7  X    0.000149   0.000047  -0.000348  -0.000070   0.000188
   34  C  7  Y    0.001137  -0.000016  -0.004583  -0.000173  -0.000064
   35  C  7  Z    0.000383   0.000021  -0.000593  -0.000153  -0.000024
   36  C  8  S    0.016243   0.000258   0.992016   0.008012   0.000910
   37  C  8  S   -0.007122  -0.000003   0.036389   0.000242   0.000028
   38  C  8  X    0.000336  -0.000012  -0.000336  -0.000008   0.000082
   39  C  8  Y    0.004454  -0.000006  -0.001525   0.000087   0.000005
   40  C  8  Z    0.000522  -0.000003   0.000241  -0.000161  -0.000012
   41  C  9  S    0.000504  -0.000030   0.001813   0.000454   0.000119
   42  C  9  S    0.000092   0.000004  -0.006228   0.000033  -0.000010
   43  C  9  X    0.000038  -0.000013  -0.001347  -0.000108   0.000064
   44  C  9  Y    0.000214  -0.000009   0.001719   0.000139   0.000044
   45  C  9  Z   -0.000027  -0.000011   0.003678   0.000022   0.000045
   46  O 10  S    0.000014  -0.000000  -0.000019   0.000009   0.000001
   47  O 10  S   -0.000128   0.000003   0.000307  -0.000079  -0.000016
   48  O 10  X   -0.000007  -0.000001   0.000036   0.000033  -0.000014
   49  O 10  Y    0.000065  -0.000001  -0.000157   0.000038   0.000010
   50  O 10  Z    0.000029  -0.000001  -0.000126  -0.000005  -0.000006
   51  H 11  S   -0.000022  -0.006797   0.000003  -0.000174   0.000153
   52  H 12  S   -0.000078  -0.006680   0.000007  -0.000540   0.000062
   53  H 13  S   -0.000050   0.000051  -0.000061  -0.000020  -0.006894
   54  H 14  S    0.000003  -0.000112  -0.000004  -0.000128   0.000038
   55  H 15  S   -0.000001  -0.000011  -0.000003  -0.000045  -0.000103
   56  H 16  S   -0.000079  -0.000017  -0.000071   0.000027  -0.000106
   57  H 17  S   -0.000076   0.000140   0.000003  -0.006859  -0.000025
   58  H 18  S   -0.000018  -0.000019  -0.000080   0.000168  -0.000115
   59  H 19  S   -0.006838  -0.000023   0.000212  -0.000116  -0.000022
   60  H 20  S    0.000023  -0.000000  -0.006842  -0.000113  -0.000021

                     11         12         13         14         15
                   -1.3039    -1.0871    -1.0067    -0.9589    -0.9349
                     A          A          A          A          A   
    1  C  1  S   -0.000739  -0.058555  -0.127716   0.059757  -0.060551
    2  C  1  S    0.001762   0.153941   0.342921  -0.163180   0.171665
    3  C  1  X    0.000258   0.009041  -0.043445   0.030989   0.024956
    4  C  1  Y    0.000542   0.028274   0.078473  -0.039053  -0.015686
    5  C  1  Z    0.000139   0.008791   0.010280   0.011567  -0.001597
    6  C  2  S   -0.001160  -0.052160  -0.148689   0.066802   0.016064
    7  C  2  S    0.002764   0.131731   0.388815  -0.179202  -0.046498
    8  C  2  X    0.000816   0.024727   0.037969  -0.014083   0.014349
    9  C  2  Y    0.000438  -0.018907  -0.047638   0.032698  -0.068956
   10  C  2  Z    0.000584   0.011279   0.027337   0.007731  -0.043062
   11  C  3  S   -0.002653  -0.037921  -0.096131   0.011886   0.091646
   12  C  3  S    0.006716   0.104346   0.268543  -0.030694  -0.267631
   13  C  3  X    0.002327   0.010948  -0.015010   0.027562  -0.008706
   14  C  3  Y    0.000685  -0.013246  -0.037595   0.016227  -0.008611
   15  C  3  Z   -0.000179  -0.014037  -0.050096   0.033392   0.000985
   16  C  4  S   -0.022093  -0.074204  -0.005903  -0.105843   0.116616
   17  C  4  S    0.056001   0.199757   0.019508   0.300766  -0.338508
   18  C  4  X    0.012610   0.019941  -0.029827   0.033927  -0.012092
   19  C  4  Y    0.018289  -0.035692  -0.002604  -0.052284  -0.042318
   20  C  4  Z   -0.018764  -0.026794   0.007600   0.008444   0.024253
   21  C  5  S   -0.005294  -0.108530   0.006961  -0.130430  -0.029408
   22  C  5  S    0.012211   0.275090  -0.018032   0.354161   0.076583
   23  C  5  X   -0.000928  -0.014700  -0.017283  -0.022230   0.015982
   24  C  5  Y    0.004795   0.008330  -0.000152   0.024199  -0.108999
   25  C  5  Z   -0.001907  -0.069679   0.015001  -0.018065  -0.081372
   26  C  6  S   -0.003639  -0.127558   0.023591  -0.045138  -0.122270
   27  C  6  S    0.008654   0.333094  -0.062514   0.120413   0.343533
   28  C  6  X    0.000565   0.007847  -0.043886  -0.007358   0.005465
   29  C  6  Y    0.003174   0.055989  -0.031443  -0.001322  -0.016843
   30  C  6  Z    0.000600   0.025854   0.019594   0.124974   0.012893
   31  C  7  S   -0.006684  -0.107689   0.085208   0.103318  -0.023631
   32  C  7  S    0.015942   0.275285  -0.225058  -0.280590   0.067607
   33  C  7  X   -0.000338  -0.018993  -0.008568  -0.015011  -0.024204
   34  C  7  Y    0.006817   0.015308  -0.049705  -0.092712  -0.105120
   35  C  7  Z    0.002869   0.051078  -0.016526   0.022006   0.029010
   36  C  8  S   -0.024509  -0.079711   0.086298   0.120476   0.068952
[...]
 19   H            X -0.01261892  0.00111935  0.00445051 -0.07341009 -0.01829978
                   Y -0.04883364  0.00434868  0.01909904 -0.08121295 -0.01486626
                   Z  0.02852643 -0.00105716 -0.00245341  0.14693670  0.03396306
 20   H            X  0.00387534 -0.00086931 -0.00109296 -0.04623188 -0.02856245
                   Y  0.00988993  0.00134577 -0.00155797 -0.00318165  0.05785684
                   Z -0.01356588  0.00178557  0.02059971  0.12962192  0.08013925

 TRANS. SAYVETZ    X  0.00000032 -0.00000111  0.00000224  0.00000287  0.00000123
                   Y -0.00000106 -0.00000030 -0.00000048  0.00000031  0.00000200
                   Z  0.00000265  0.00000103  0.00000015 -0.00000008 -0.00000043
               TOTAL  0.00000287  0.00000155  0.00000230  0.00000288  0.00000239

   ROT. SAYVETZ    X  0.00076128  0.00186791 -0.00538450  0.00100580  0.00099767
                   Y  0.01108874 -0.01086754 -0.02079315  0.00187852  0.00024114
                   Z -0.00626765 -0.00769186  0.02710942 -0.00469799 -0.00416453
               TOTAL  0.01276022  0.01344460  0.03458712  0.00515864  0.00428915

                           51          52          53          54          55
       FREQUENCY:      3631.37     3635.53     3691.44     3697.79     3706.39  
        SYMMETRY:         A           A           A           A           A   
    REDUCED MASS:      1.06290     1.06486     1.09131     1.09374     1.09166
    IR INTENSITY:      0.12977     0.09335     0.20043     0.11669     0.48745

  1   C            X  0.00691219 -0.00872857  0.00009414 -0.00036563 -0.00026944
                   Y  0.04472649 -0.04974305  0.00345483  0.00020489 -0.00022926
                   Z  0.00733942 -0.00824325  0.00024725 -0.00032831 -0.00004534
  2   C            X  0.00163973 -0.00140808  0.00022775  0.00001192 -0.00002910
                   Y  0.00428854  0.00594596 -0.00302327  0.00061496  0.00143370
                   Z -0.00490323  0.00477623  0.00407864 -0.00154934 -0.00224316
  3   C            X  0.02193640  0.02120779  0.00117333 -0.00014206 -0.00009585
                   Y -0.01962432 -0.01792295 -0.00103030  0.00041945  0.00016134
                   Z -0.04098005 -0.03769047 -0.00239870  0.00186825  0.00104890
  4   C            X -0.00040501 -0.00083984  0.00467435  0.00295527  0.00077271
                   Y  0.00059678  0.00030438 -0.02644207 -0.01962585 -0.00534603
                   Z  0.00247462 -0.00036319 -0.06002363 -0.04090003 -0.00993972
  5   C            X  0.00029854  0.00007758 -0.00392148  0.00002807  0.00073690
                   Y  0.00160399 -0.00054592 -0.01945182  0.00923188  0.00946218
                   Z -0.00219854 -0.00023516  0.02798069 -0.00403138 -0.00913947
  6   C            X  0.00037753  0.00069768 -0.00795525  0.01502864  0.00590021
                   Y -0.00243122  0.00021730  0.03494447 -0.06095936 -0.02879763
                   Z  0.00027572  0.00056661  0.00274146 -0.00725359 -0.00080061
  7   C            X -0.00021349  0.00010657  0.00267224 -0.00780160  0.01955310
                   Y  0.00033535  0.00011327 -0.00546275  0.01404618 -0.02663712
                   Z  0.00012416 -0.00002518 -0.00785591  0.02205657 -0.05325534
  8   C            X  0.00020315  0.00000652 -0.00178917  0.00581908 -0.01643089
                   Y  0.00016086 -0.00007468 -0.00209490  0.00774836 -0.02348171
                   Z -0.00029742  0.00006600  0.00344253 -0.01155713  0.03255816
  9   C            X -0.00016958 -0.00008838 -0.00061351 -0.00073347  0.00057859
                   Y  0.00017394 -0.00001783 -0.00070482 -0.00066264 -0.00016696
                   Z -0.00014845 -0.00000957  0.00127610  0.00178320 -0.00138724
 10   O            X  0.00003368  0.00001086  0.00002848  0.00006636 -0.00007598
                   Y -0.00004412  0.00000210  0.00003927  0.00016584 -0.00006445
                   Z  0.00000738  0.00000205 -0.00008924 -0.00019064  0.00015756
 11   H            X  0.00672288 -0.00780528  0.00188846  0.00056238 -0.00008592
                   Y -0.18305101  0.20175059 -0.01111797  0.00285830  0.00089311
                   Z -0.41597885  0.45949449 -0.02405321  0.00570443  0.00148647
 12   H            X -0.10341477  0.11671444 -0.00667832 -0.00020088  0.00164901
                   Y -0.29535380  0.32770571 -0.02167539  0.00013667  0.00257208
                   Z  0.33427618 -0.36944177  0.02396297  0.00018244 -0.00240266
 13   H            X -0.00023541 -0.00031848  0.00001473 -0.00004986  0.00002651
                   Y -0.07265961  0.00657211  0.03175995 -0.01022562 -0.01695169
                   Z  0.10243414 -0.00464209 -0.04469486  0.01450862  0.02384872
 14   H            X -0.12668018 -0.11585604 -0.00555088  0.00037308  0.00061621
                   Y  0.47840752  0.43900617  0.02426659 -0.00675870 -0.00377232
                   Z  0.02686181  0.02422392  0.00207220 -0.00051583 -0.00046563
 15   H            X -0.13094843 -0.12297743 -0.00726004  0.00355886  0.00177509
                   Y -0.27231070 -0.25093891 -0.01519452  0.00860648  0.00440993
                   Z  0.40546556  0.37390093  0.02383071 -0.01277717 -0.00669271
 16   H            X  0.00080244  0.00073044 -0.03917442 -0.02723676 -0.00684593
                   Y -0.01070389  0.00341315  0.29938281  0.20549055  0.04941084
                   Z -0.02503371  0.00837928  0.68055060  0.46418452  0.11228628
 17   H            X -0.00329991  0.00011591  0.03731681 -0.00916205 -0.01291833
                   Y -0.02052633  0.00117433  0.24408974 -0.06203688 -0.09164814
                   Z  0.02713491 -0.00114067 -0.32287165  0.07893361  0.11909982
 18   H            X -0.00761010 -0.00262722  0.10081872 -0.17489784 -0.07916186
                   Y  0.02670216  0.00556263 -0.39595673  0.68821784  0.31569756
                   Z  0.00200263  0.00014346 -0.03590920  0.06416774  0.02734578
 19   H            X  0.00159955  0.00007416 -0.03442169  0.09521889 -0.21910791
                   Y -0.00222695 -0.00003724  0.05098821 -0.13977253  0.31404362
                   Z -0.00438705 -0.00002328  0.09614041 -0.26323275  0.59927422
 20   H            X -0.00157555  0.00043030  0.01733927 -0.06544279  0.18766303
                   Y -0.00276287  0.00069040  0.02871583 -0.10592623  0.30272848
                   Z  0.00330355 -0.00086562 -0.03431607  0.12709293 -0.36186074

 TRANS. SAYVETZ    X -0.00000060  0.00000028  0.00000005 -0.00000003  0.00000045
                   Y -0.00000011  0.00000075  0.00000011  0.00000007  0.00000016
                   Z  0.00000085  0.00000010 -0.00000043  0.00000051 -0.00000034
               TOTAL  0.00000105  0.00000081  0.00000044  0.00000051  0.00000059

   ROT. SAYVETZ    X  0.00021983 -0.00047264 -0.00016091  0.00055170  0.00025143
                   Y -0.00127527 -0.00145439  0.00155696  0.00160816  0.00038520
                   Z -0.00095085  0.00226111  0.00029500 -0.00261104 -0.00107512
               TOTAL  0.00160585  0.00272970  0.00159281  0.00311578  0.00116939

                           56          57          58          59          60
       FREQUENCY:      3718.45     3722.88     3736.32     3782.79     3784.33  
        SYMMETRY:         A           A           A           A           A   
    REDUCED MASS:      1.09805     1.09988     1.10614     1.11777     1.11826
    IR INTENSITY:      0.23931     0.05694     0.04475     0.02366     0.01683

  1   C            X -0.00054081  0.00067878 -0.00007161  0.00891127  0.01081716
                   Y -0.01046292  0.00285006 -0.00015554  0.00839919  0.00919279
                   Z  0.00430383 -0.00229340  0.00000914 -0.05893560 -0.07149003
  2   C            X -0.00192872  0.00121660 -0.00008997 -0.00008490 -0.00046799
                   Y  0.04528498 -0.01721024  0.00037906  0.00026254  0.00418195
                   Z -0.06422636  0.02454711 -0.00054635  0.00123970 -0.00600321
  3   C            X -0.00244550  0.00100823 -0.00006600 -0.00013902 -0.00009705
                   Y -0.00137579  0.00154800 -0.00010909 -0.06578595  0.05458008
                   Z  0.01087364 -0.00331507  0.00010472  0.03153757 -0.02526765
  4   C            X  0.00155964  0.00222810 -0.00044836  0.00005018 -0.00002077
                   Y -0.00669301 -0.01296368  0.00181766  0.00057463 -0.00024613
                   Z -0.01049905 -0.01966902  0.00317223  0.00023022  0.00035643
  5   C            X  0.00201028  0.00433060 -0.00055589 -0.00000780  0.00009595
                   Y  0.01464999  0.04299970 -0.00498626  0.00002194 -0.00043301
                   Z -0.01968879 -0.05772842  0.00677665 -0.00004283  0.00060499
  6   C            X -0.00319881 -0.00639261  0.00091344 -0.00023876 -0.00002916
                   Y  0.01535291  0.02677474 -0.00801787  0.00045414 -0.00019866
                   Z  0.00348043  0.00660081  0.00021986  0.00039140  0.00045309
  7   C            X -0.00026880  0.00031566  0.01413012 -0.00006942 -0.00007532
                   Y -0.00059418 -0.00277444 -0.02943254  0.00000066  0.00000288
                   Z  0.00058646 -0.00127371 -0.04049183 -0.00009044 -0.00008354
  8   C            X  0.00164294  0.00374813  0.02519553 -0.00008992 -0.00002345
                   Y  0.00272699  0.00700762  0.04874088 -0.00012118 -0.00008215
                   Z -0.00291782 -0.00712708 -0.04705404  0.00009092  0.00008501
  9   C            X -0.00018565 -0.00029534 -0.00069787  0.00008707 -0.00008699
                   Y -0.00023097 -0.00056390  0.00113151 -0.00002402  0.00002055
                   Z  0.00038172  0.00079022  0.00188790  0.00008925 -0.00003393
 10   O            X  0.00002154  0.00002009  0.00006386  0.00000041  0.00000486
                   Y  0.00007664  0.00013404 -0.00028692  0.00002492 -0.00002454
                   Z -0.00003824 -0.00005875 -0.00019228 -0.00001368  0.00000473
 11   H            X -0.00277233 -0.00009254  0.00033807 -0.00503974 -0.00641968
                   Y  0.00817095  0.00120942  0.00082308  0.17421167  0.21128930
                   Z  0.01560135  0.00377319  0.00142584  0.38870108  0.47329717
 12   H            X  0.02352235 -0.00916581  0.00013780 -0.09869717 -0.11723747
                   Y  0.05983863 -0.02081119  0.00080081 -0.27338783 -0.32731301
                   Z -0.07033788  0.02422511 -0.00077068  0.30534331  0.36460786
 13   H            X  0.00050507 -0.00040568 -0.00004922  0.00063365  0.00126802
                   Y -0.50671795  0.19369518 -0.00430559  0.00219211 -0.05100157
                   Z  0.71379323 -0.27294441  0.00604014 -0.01085036  0.07138487
 14   H            X  0.00152253  0.00103982 -0.00015413 -0.13470127  0.11123031
                   Y -0.01348619 -0.00487806  0.00053297  0.50131376 -0.41561604
                   Z -0.00233608  0.00007910  0.00002088  0.03113414 -0.02526731
 15   H            X  0.02531730 -0.00977908  0.00067145  0.13525375 -0.10965309
                   Y  0.05292483 -0.01868810  0.00103615  0.27099488 -0.21985093
                   Z -0.07450831  0.02599519 -0.00152472 -0.40517391  0.32998310
 16   H            X -0.00830137 -0.01388172  0.00191430  0.00051224 -0.00007883
                   Y  0.05300546  0.09931550 -0.01432854 -0.00170093 -0.00111359
                   Z  0.11763760  0.22153971 -0.03184960 -0.00465256 -0.00174623
 17   H            X -0.02379011 -0.06958489  0.00753275 -0.00003419  0.00066571
                   Y -0.16016512 -0.47584455  0.05352321 -0.00029127  0.00404562
                   Z  0.21161666  0.62873118 -0.07045798  0.00026295 -0.00534251
 18   H            X  0.03979998  0.07139414 -0.01881924  0.00113112 -0.00058323
                   Y -0.16247639 -0.28425759  0.07829081 -0.00551013  0.00107463
                   Z -0.01631538 -0.02810026  0.00647099 -0.00034288  0.00042259
 19   H            X  0.00174618 -0.00727542 -0.16414505 -0.00011358 -0.00018037
                   Y -0.00147920  0.01199899  0.23818623  0.00017659  0.00020491
                   Z -0.00416059  0.02069826  0.44942403  0.00051580  0.00052672
 20   H            X -0.01793975 -0.04398820 -0.28458302  0.00080860  0.00050523
                   Y -0.02926204 -0.07144018 -0.46154680  0.00098432  0.00069464
                   Z  0.03484817  0.08501830  0.54825987 -0.00121746 -0.00084066

 TRANS. SAYVETZ    X -0.00000076  0.00000020  0.00000061  0.00000001 -0.00000009
                   Y  0.00000020 -0.00000012 -0.00000028  0.00000008 -0.00000002
                   Z  0.00000055  0.00000093  0.00000006  0.00000001  0.00000006
               TOTAL  0.00000096  0.00000096  0.00000068  0.00000008  0.00000011

   ROT. SAYVETZ    X -0.00009665 -0.00004729  0.00004975 -0.00029456  0.00055522
                   Y  0.00067099  0.00013703 -0.00011878 -0.00108735 -0.00301246
                   Z  0.00067382  0.00035940 -0.00019236  0.00157491 -0.00180394
               TOTAL  0.00095583  0.00038753  0.00023149  0.00193635  0.00355491

 REFERENCE ON SAYVETZ CONDITIONS - A. SAYVETZ, J.CHEM.PHYS., 7, 383-389(1939).

 NOTE - THE MODES J,K ARE ORTHONORMALIZED ACCORDING TO
 SUM ON I   M(I) * (X(I,J)*X(I,K) + Y(I,J)*Y(I,K) + Z(I,J)*Z(I,K)) = DELTA(J,K)

  MODE FREQ(CM**-1)  SYMMETRY  RED. MASS  IR INTENS.
     1    1057.252    A       10.094881    0.011725
     2       0.095    A        6.585663    0.000108
     3       0.011    A        6.702837    0.000000
     4       0.005    A        6.704165    0.000000
     5       1.203    A        4.731916    0.017176
     6      44.920    A        6.098305    0.021742
     7      55.965    A        4.130418    0.000102
     8     119.929    A        5.159126    0.033802
     9     224.630    A        3.219401    0.028330
    10     252.732    A        3.711971    0.025421
    11     380.211    A        4.896174    0.004985
    12     384.732    A        6.925058    0.154554
    13     469.694    A        3.033994    0.049814
    14     485.660    A        2.212003    0.008750
    15     498.036    A        4.590876    0.165874
    16     570.263    A        2.513144    0.078346
    17     604.433    A        2.409371    0.125658
    18     617.386    A        5.335145    0.023067
    19     682.076    A        6.087315    0.012448
    20     831.560    A        3.830391    0.100079
    21     853.781    A        3.360613    0.168090
    22     920.640    A        1.494306    0.511085
    23     935.008    A        1.809294    0.590026
    24     963.831    A        1.471607    1.278163
    25     978.000    A        1.456101    0.220225
    26    1032.654    A        1.228795    0.137110
    27    1088.217    A        1.829736    0.105049
    28    1106.666    A        3.505218    0.007446
    29    1162.632    A        1.681430    0.017986
    30    1183.254    A        1.076050    0.015327
    31    1208.566    A        1.265863    0.010460
    32    1221.805    A        1.467243    0.250422
    33    1231.060    A        1.220131    0.122267
    34    1246.056    A        1.328754    0.028565
    35    1312.805    A        1.226788    0.021988
    36    1337.468    A        1.210192    0.118414
    37    1354.874    A        1.134970    0.030725
    38    1364.102    A        1.277449    0.151396
    39    1423.693    A        1.849038    0.645217
    40    1459.539    A        1.356044    0.121694
    41    1483.614    A        1.917518    0.018648
    42    1601.345    A        1.630441    0.190157
    43    1642.348    A        1.725344    0.107435
    44    1666.269    A        1.559189    0.040122
    45    1735.695    A        2.706167    0.200849
    46    1761.899    A        1.809394    0.047728
    47    1814.291    A        1.274171    0.220992
    48    1867.747    A        2.723669    0.059408
    49    2004.523    A        7.033919    0.056594
    50    2073.338    A       10.421853    1.824831
    51    3631.375    A        1.062896    0.129773
    52    3635.530    A        1.064857    0.093352
    53    3691.439    A        1.091306    0.200435
    54    3697.792    A        1.093736    0.116688
    55    3706.388    A        1.091660    0.487448
    56    3718.452    A        1.098053    0.239307
    57    3722.878    A        1.099884    0.056944
    58    3736.319    A        1.106141    0.044747
    59    3782.786    A        1.117770    0.023660
    60    3784.334    A        1.118265    0.016828

     -------------------------------
     THERMOCHEMISTRY AT T=  298.15 K
     -------------------------------

 USING IDEAL GAS, RIGID ROTOR, HARMONIC NORMAL MODE APPROXIMATIONS.
 P=  1.01325E+05 PASCAL.
 ALL FREQUENCIES ARE SCALED BY   1.00000
 THE MOMENTS OF INERTIA ARE (IN AMU*BOHR**2)
            891.63964          1271.16424          1538.66318
 THE ROTATIONAL SYMMETRY NUMBER IS  1.0
 THE ROTATIONAL CONSTANTS ARE (IN GHZ)
      2.02222     1.41845     1.17185
   1 IMAGINARY FREQUENCY VIBRATION(S) IS(ARE) EXCLUDED
     FROM THE FOLLOWING THERMOCHEMICAL ANALYSIS.
      8 -     60 VIBRATIONAL MODES ARE USED IN THERMOCHEMISTRY.
 THE HARMONIC ZERO POINT ENERGY IS (SCALED BY   1.000)
        0.191968 HARTREE/MOLECULE    42132.177861 CM**-1/MOLECULE 
      120.462062 KCAL/MOL              504.013268 KJ/MOL

               Q               LN Q
 ELEC.     1.00000E+00       0.000000
 TRANS.    6.10192E+07      17.926699
 ROT.      4.72725E+05      13.066269
 VIB.      1.30308E+01       2.567312
 TOT.      3.75876E+14      33.560281

              E         H         G         CV        CP        S
           KJ/MOL    KJ/MOL    KJ/MOL   J/MOL-K   J/MOL-K   J/MOL-K
 ELEC.      0.000     0.000     0.000     0.000     0.000     0.000
 TRANS.     3.718     6.197   -44.439    12.472    20.786   169.836
 ROT.       3.718     3.718   -32.391    12.472    12.472   121.110
 VIB.     515.132   515.132   497.649    93.732    93.732    58.637
 TOTAL    522.569   525.047   420.819   118.675   126.990   349.583
 VIB. THERMAL CORRECTION E(T)-E(0) = H(T)-H(0) =     11118.410 J/MOL

              E         H         G         CV        CP        S
         KCAL/MOL  KCAL/MOL  KCAL/MOL CAL/MOL-K CAL/MOL-K CAL/MOL-K
 ELEC.      0.000     0.000     0.000     0.000     0.000     0.000
 TRANS.     0.889     1.481   -10.621     2.981     4.968    40.592
 ROT.       0.889     0.889    -7.742     2.981     2.981    28.946
 VIB.     123.119   123.119   118.941    22.403    22.403    14.015
 TOTAL    124.897   125.489   100.578    28.364    30.351    83.552
 VIB. THERMAL CORRECTION E(T)-E(0) = H(T)-H(0) =      2657.364 CAL/MOL

     *******************************************************
     * THIS IS NOT A STATIONARY POINT ON THE MOLECULAR PES *
     *     THE VIBRATIONAL ANALYSIS IS NOT VALID !!!       *
     *******************************************************
 ......END OF NORMAL COORDINATE ANALYSIS......
 STEP CPU TIME =     0.02 TOTAL CPU TIME =        141.0 (      2.4 MIN)
 TOTAL WALL CLOCK TIME=        141.4 SECONDS, CPU UTILIZATION IS    99.71%
               580000  WORDS OF DYNAMIC MEMORY USED
 EXECUTION OF GAMESS TERMINATED NORMALLY Sat Nov 13 17:59:20 2021
 DDI: 263640 bytes (0.3 MB / 0 MWords) used by master data server.

 ----------------------------------------
 CPU timing information for all processes
 ========================================
 0: 138.810 + 2.221 = 141.32
 ----------------------------------------
 ddikick.x: exited gracefully.
----- accounting info -----
Files used on the master node chemcompute-node-0.novalocal were:
-rw-r--r--. 1 chemcomp chemcomp     1346 Nov 13 17:56 /scratch/306071/341973.F05
-rw-rw-r--. 1 chemcomp chemcomp 18181616 Nov 13 17:58 /scratch/306071/341973.F08
-rw-rw-r--. 1 chemcomp chemcomp 85196800 Nov 13 17:59 /scratch/306071/341973.F10
-rw-rw-r--. 1 chemcomp chemcomp   878880 Nov 13 17:59 /scratch/306071/341973.F18
Sat Nov 13 17:59:24 UTC 2021
0.167u 0.100s 2:25.26 0.1%	0+0k 8+216io 0pf+0w
Finishing Up...
Looking for IR data...
Looking for Raman data...
vibramans not found
Looking for thermodynamics data...
Looking for UV-Vis data...
306071
