----- GAMESS execution script 'rungms' -----
This job is running on host chemcompute-node-0.novalocal
under operating system Linux at Sat Nov 13 22:14:45 UTC 2021
SLURM has assigned the following compute nodes to this run:
chemcompute-node-0
Available scratch disk space (Kbyte units) at beginning of the job is
Filesystem     1K-blocks     Used Available Use% Mounted on
/dev/sda1       62903276 17029716  45873560  28% /
GAMESS temporary binary files will be written to /scratch/306218
GAMESS supplementary output files will be written to /data/slurm/342120
Copying input file 342120.inp to your run's scratch directory...
The generated host list is
chemcompute-node-0.novalocal

 Distributed Data Interface kickoff program.
 Initiating 1 compute processes on 1 nodes to run the following command:
 /data/gamess-2019R1-ddi/gamess.00.x 342120 

          ******************************************************
          *         GAMESS VERSION = 30 JUN 2019 (R1)          *
          *             FROM IOWA STATE UNIVERSITY             *
          * M.W.SCHMIDT, K.K.BALDRIDGE, J.A.BOATZ, S.T.ELBERT, *
          *   M.S.GORDON, J.H.JENSEN, S.KOSEKI, N.MATSUNAGA,   *
          *          K.A.NGUYEN, S.J.SU, T.L.WINDUS,           *
          *       TOGETHER WITH M.DUPUIS, J.A.MONTGOMERY       *
          *         J.COMPUT.CHEM.  14, 1347-1363(1993)        *
          **************** 64 BIT LINUX VERSION ****************

  SINCE 1993, STUDENTS AND POSTDOCS WORKING AT IOWA STATE UNIVERSITY
  AND ALSO IN THEIR VARIOUS JOBS AFTER LEAVING ISU HAVE MADE IMPORTANT
  CONTRIBUTIONS TO THE CODE:
     IVANA ADAMOVIC, CHRISTINE AIKENS, YURI ALEXEEV, POOJA ARORA,
     ANDREY ASADCHEV, ROB BELL, PRADIPTA BANDYOPADHYAY, JONATHAN BENTZ,
     COLLEEN BERTONI, BRETT BODE, KURT BRORSEN, CALEB CARLIN, GALINA CHABAN,
     WEI CHEN, CHEOL HO CHOI, PAUL DAY, ALBERT DEFUSCO, NUWAN DESILVA,
     TIM DUDLEY, DMITRI FEDOROV, ALEX FINDLATER, GRAHAM FLETCHER, 
     MARK FREITAG, KURT GLAESEMANN, ANASTASIA GUNINA,
     DAN KEMP, GRANT MERRILL, NORIYUKI MINEZAWA, JONATHAN MULLIN,
     TAKESHI NAGATA, SEAN NEDD, HEATHER NETZLOFF, BOSILJKA NJEGIC, RYAN OLSON,
     MIKE PAK, BUU PHAM,
     SPENCER PRUITT, LUKE ROSKOP, JIM SHOEMAKER, LYUDMILA SLIPCHENKO,
     TONY SMITH, SAROM SOK LEANG, JIE SONG, TETSUYA TAKETSUGU, SIMON WEBB,
     PENG XU, SOOHAENG YOO, FEDERICO ZAHARIEV

  ADDITIONAL CODE HAS BEEN PROVIDED BY COLLABORATORS IN OTHER GROUPS:
     IOWA STATE UNIVERSITY:
          JOE IVANIC, AARON WEST, LAIMUTIS BYTAUTAS, KLAUS RUEDENBERG
     UNIVERSITY OF TOKYO: KIMIHIKO HIRAO, TAKAHITO NAKAJIMA,
          TAKAO TSUNEDA, MUNEAKI KAMIYA, SUSUMU YANAGISAWA,
          KIYOSHI YAGI, MAHITO CHIBA, SEIKEN TOKURA, NAOAKI KAWAKAMI
     UNIVERSITY OF AARHUS: FRANK JENSEN
     UNIVERSITY OF IOWA: VISVALDAS KAIRYS, HUI LI
     NATIONAL INST. OF STANDARDS AND TECHNOLOGY: WALT STEVENS, DAVID GARMER
     UNIVERSITY OF PISA: BENEDETTA MENNUCCI, JACOPO TOMASI
     UNIVERSITY OF MEMPHIS: HENRY KURTZ, PRAKASHAN KORAMBATH
     UNIVERSITY OF ALBERTA: TOBY ZENG, MARIUSZ KLOBUKOWSKI
     UNIVERSITY OF NEW ENGLAND: MARK SPACKMAN
     MIE UNIVERSITY: HIROAKI UMEDA
     NAT. INST. OF ADVANCED INDUSTRIAL SCIENCE AND TECHNOLOGY: KAZUO KITAURA
     MICHIGAN STATE UNIVERSITY:
          KAROL KOWALSKI, MARTA WLOCH, JEFFREY GOUR, JESSE LUTZ,
          WEI LI, JUN SHEN, J. EMILIANO DEUSTUA, PIOTR PIECUCH
     UNIVERSITY OF MINNESOTA:
          YINAN SHU
     UNIVERSITY OF SILESIA: MONIKA MUSIAL, STANISLAW KUCHARSKI
     FACULTES UNIVERSITAIRES NOTRE-DAME DE LA PAIX:
          OLIVIER QUINET, BENOIT CHAMPAGNE
     UNIVERSITY OF CALIFORNIA - SANTA BARBARA: BERNARD KIRTMAN
     INSTITUTE FOR MOLECULAR SCIENCE:
          KAZUYA ISHIMURA, MICHIO KATOUDA, AND SHIGERU NAGASE
     UNIVERSITY OF NOTRE DAME: ANNA POMOGAEVA, DAN CHIPMAN
     KYUSHU UNIVERSITY:
          HARUYUKI NAKANO,
          FENG LONG GU, JACEK KORCHOWIEC, MARCIN MAKOWSKI, AND YURIKO AOKI,
          HIROTOSHI MORI AND EISAKU MIYOSHI
     PENNSYLVANIA STATE UNIVERSITY:
          TZVETELIN IORDANOV, CHET SWALINA, JONATHAN SKONE,
          SHARON HAMMES-SCHIFFER
     WASEDA UNIVERSITY:
          MASATO KOBAYASHI, TOMOKO AKAMA, TSUGUKI TOUMA,
          TAKESHI YOSHIKAWA, YASUHIRO IKABATA, JUNJI SEINO,
          YUYA NAKAJIMA, HIROMI NAKAI
     NANJING UNIVERSITY: SHUHUA LI
     UNIVERSITY OF NEBRASKA:
          PEIFENG SU, DEJUN SI, NANDUN THELLAMUREGE, YALI WANG, HUI LI
     UNIVERSITY OF ZURICH: ROBERTO PEVERATI, KIM BALDRIDGE
     N. COPERNICUS UNIVERSITY AND JACKSON STATE UNIVERSITY:
          MARIA BARYSZ
     UNIVERSITY OF COPENHAGEN: Jimmy Kromann, CASPER STEINMANN
     TOKYO INSTITUTE OF TECHNOLOGY: HIROYA NAKATA
     NAGOYA UNIVERSITY: YOSHIO NISHIMOTO, STEPHAN IRLE
     MOSCOW STATE UNIVERSITY: VLADIMIR MIRONOV
     A.N.NESMEYANOV INSTITUTE OF ORGANOELEMENT COMPOUNDS OF RUSSIAN ACADEMY OF SCIENCES:
          IGOR S. GERASIMOV

 EXECUTION OF GAMESS BEGUN Sat Nov 13 22:14:45 2021

            ECHO OF THE FIRST FEW INPUT CARDS -
 INPUT CARD> $BASIS GBASIS=STO NGAUSS=3 $END                                                
 INPUT CARD> $CONTRL SCFTYP=RHF RUNTYP=OPTIMIZE ICHARG=1 MULT=1 $END                        
 INPUT CARD> $STATPT hssend=.t. OPTTOL=0.0005 NSTEP=50 $END                                 
 INPUT CARD> $STATPT HESS=calc ihrep=5 $END                                                 
 INPUT CARD> $FORCE nvib=2 $END                                                             
 INPUT CARD> $ZMAT DLC=.t. auto=.t. nonvdw(1)=6,5,4,5 $END                                  
 INPUT CARD> $ZMAT IFZMAT(1)=1,6,5,1,4,5 fvalue(1)=2.00,2.00 $END                           
 INPUT CARD>                                                                                
 INPUT CARD> $DATA                                                                          
 INPUT CARD>Title                                                                           
 INPUT CARD>C1                                                                              
 INPUT CARD>C     6.0    -0.73193    -1.13707    -0.16129                                   
 INPUT CARD>C     6.0    -1.64271     0.04990     0.07103                                   
 INPUT CARD>C     6.0    -0.74776     1.20589    -0.29852                                   
 INPUT CARD>C     6.0     0.59715    -0.63283     0.39443                                   
 INPUT CARD>Br    35.0     1.85060     0.04871    -1.00677                                  
 INPUT CARD>C     6.0     0.59641     0.83387     0.33802                                   
 INPUT CARD>H     1.0    -0.62090    -1.36834    -1.24373                                   
 INPUT CARD>H     1.0    -1.12213    -2.02801     0.37476                                   
 INPUT CARD>H     1.0    -1.85693     0.12059     1.16291                                   
 INPUT CARD>H     1.0    -2.60633     0.00751    -0.47947                                   
 INPUT CARD>H     1.0    -1.13946     2.18910     0.03728                                   
 INPUT CARD>H     1.0    -0.64045     1.22991    -1.40653                                   
 INPUT CARD>H     1.0     1.28281    -1.30645     0.94979                                   
 INPUT CARD>H     1.0     0.77438     1.12933     1.39386                                   
 INPUT CARD> $END                                                                           
    1000000 WORDS OF MEMORY AVAILABLE

     BASIS OPTIONS
     -------------
     GBASIS=STO          IGAUSS=       3      POLAR=NONE    
     NDFUNC=       0     NFFUNC=       0     DIFFSP=       F
     NPFUNC=       0      DIFFS=       F     BASNAM=        


     RUN TITLE
     ---------
 Title                                                                           

 THE POINT GROUP OF THE MOLECULE IS C1      
 THE ORDER OF THE PRINCIPAL AXIS IS     0

 ATOM      ATOMIC                      COORDINATES (BOHR)
           CHARGE         X                   Y                   Z
 C           6.0    -1.3831471422       -2.1487507289       -0.3047939046
 C           6.0    -3.1042717773        0.0942973268        0.1342272369
 C           6.0    -1.4130615046        2.2788016713       -0.5641210019
 C           6.0     1.1284498736       -1.1958752968        0.7453646213
 BR         35.0     3.4971269129        0.0920485529       -1.9025194327
 C           6.0     1.1270514763        1.5757858094        0.6387651784
 H           1.0    -1.1733308658       -2.5857876580       -2.3503089027
 H           1.0    -2.1205182226       -3.8323832004        0.7081937112
 H           1.0    -3.5090888784        0.2278820569        2.1975812484
 H           1.0    -4.9252495336        0.0141918422       -0.9060669193
 H           1.0    -2.1532671740        4.1367991597        0.0704489848
 H           1.0    -1.2102750088        2.3241928896       -2.6579562935
 H           1.0     2.4241593943       -2.4688325167        1.7948428459
 H           1.0     1.4633660104        2.1341242497        2.6340134652

          INTERNUCLEAR DISTANCES (ANGS.)
          ------------------------------

                1 C          2 C          3 C          4 C          5 BR    

   1 C       0.0000000    1.5140643 *  2.3470288 *  1.5262819 *  2.9648561 *
   2 C       1.5140643 *  0.0000000    1.5079176 *  2.3638275 *  3.6557994  
   3 C       2.3470288 *  1.5079176 *  0.0000000    2.3811455 *  2.9312384 *
   4 C       1.5262819 *  2.3638275 *  2.3811455 *  0.0000000    1.9997488 *
   5 BR      2.9648561 *  3.6557994    2.9312384 *  1.9997488 *  0.0000000  
   6 C       2.4286626 *  2.3873732 *  1.5330933 *  1.4677846 *  1.9994822 *
   7 H       1.1124252 *  2.1872572 *  2.7452096 *  2.1698362 *  2.8587572 *
   8 H       1.1105763 *  2.1635539 *  3.3243899    2.2142353 *  3.8805302  
   9 H       2.1449567 *  1.1149391 *  2.1316453 *  2.6796850 *  4.2963306  
  10 H       2.2191614 *  1.1105902 *  2.2188150 *  3.3817186    4.4882032  
  11 H       3.3569209    2.1978572 *  1.1103569 *  3.3326655    3.8225343  
  12 H       2.6761139 *  2.1401244 *  1.1134534 *  2.8713953 *  2.7857444 *
  13 H       2.3070253 *  3.3422405    3.4631409    1.1100983 *  2.4468288 *
  14 H       3.1343309    2.9592858 *  2.2774814 *  2.0335876 *  2.8441191 *

                6 C          7 H          8 H          9 H         10 H     

   1 C       2.4286626 *  1.1124252 *  1.1105763 *  2.1449567 *  2.2191614 *
   2 C       2.3873732 *  2.1872572 *  2.1635539 *  1.1149391 *  1.1105902 *
   3 C       1.5330933 *  2.7452096 *  3.3243899    2.1316453 *  2.2188150 *
   4 C       1.4677846 *  2.1698362 *  2.2142353 *  2.6796850 *  3.3817186  
   5 BR      1.9994822 *  2.8587572 *  3.8805302    4.2963306    4.4882032  
   6 C       0.0000000    2.9721214 *  3.3384258    2.6847885 *  3.4071549  
   7 H       2.9721214 *  0.0000000    1.8182150 *  3.0881384    2.5335724 *
   8 H       3.3384258    1.8182150 *  0.0000000    2.4036625 *  2.6600564 *
   9 H       2.6847885 *  3.0881384    2.4036625 *  0.0000000    1.8088116 *
  10 H       3.4071549    2.5335724 *  2.6600564 *  1.8088116 *  0.0000000  
  11 H       2.2226870 *  3.8164474    4.2306276    2.4618163 *  2.6791926 *
  12 H       2.1748851 *  2.6034187 *  3.7442025    3.0516285    2.4936692 *
  13 H       2.3294586 *  2.9050770 *  2.5758581 *  3.4554060    4.3468017  
  14 H       1.1107511 *  3.8912778    3.8215325    2.8274877 *  4.0245553  

               11 H         12 H         13 H         14 H     

   1 C       3.3569209    2.6761139 *  2.3070253 *  3.1343309  
   2 C       2.1978572 *  2.1401244 *  3.3422405    2.9592858 *
   3 C       1.1103569 *  1.1134534 *  3.4631409    2.2774814 *
   4 C       3.3326655    2.8713953 *  1.1100983 *  2.0335876 *
   5 BR      3.8225343    2.7857444 *  2.4468288 *  2.8441191 *
   6 C       2.2226870 *  2.1748851 *  2.3294586 *  1.1107511 *
   7 H       3.8164474    2.6034187 *  2.9050770 *  3.8912778  
   8 H       4.2306276    3.7442025    2.5758581 *  3.8215325  
   9 H       2.4618163 *  3.0516285    3.4554060    2.8274877 *
  10 H       2.6791926 *  2.4936692 *  4.3468017    4.0245553  
  11 H       0.0000000    1.8037859 *  4.3495904    2.5741417 *
  12 H       1.8037859 *  0.0000000    3.9603403    3.1391152  
  13 H       4.3495904    3.9603403    0.0000000    2.5275924 *
  14 H       2.5741417 *  3.1391152    2.5275924 *  0.0000000  

  * ... LESS THAN  3.000


     ATOMIC BASIS SET
     ----------------
 THE CONTRACTED PRIMITIVE FUNCTIONS HAVE BEEN UNNORMALIZED
 THE CONTRACTED BASIS FUNCTIONS ARE NOW NORMALIZED TO UNITY

  SHELL TYPE  PRIMITIVE        EXPONENT          CONTRACTION COEFFICIENT(S)

 C         

      1   S       1            71.6168373    0.154328967295
      1   S       2            13.0450963    0.535328142282
      1   S       3             3.5305122    0.444634542185

      2   L       4             2.9412494   -0.099967229187    0.155916274999
      2   L       5             0.6834831    0.399512826089    0.607683718598
      2   L       6             0.2222899    0.700115468880    0.391957393099

 C         

      3   S       7            71.6168373    0.154328967295
      3   S       8            13.0450963    0.535328142282
      3   S       9             3.5305122    0.444634542185

      4   L      10             2.9412494   -0.099967229187    0.155916274999
      4   L      11             0.6834831    0.399512826089    0.607683718598
      4   L      12             0.2222899    0.700115468880    0.391957393099

 C         

      5   S      13            71.6168373    0.154328967295
      5   S      14            13.0450963    0.535328142282
      5   S      15             3.5305122    0.444634542185

      6   L      16             2.9412494   -0.099967229187    0.155916274999
      6   L      17             0.6834831    0.399512826089    0.607683718598
      6   L      18             0.2222899    0.700115468880    0.391957393099

 C         

      7   S      19            71.6168373    0.154328967295
      7   S      20            13.0450963    0.535328142282
      7   S      21             3.5305122    0.444634542185

      8   L      22             2.9412494   -0.099967229187    0.155916274999
      8   L      23             0.6834831    0.399512826089    0.607683718598
      8   L      24             0.2222899    0.700115468880    0.391957393099

 BR        

      9   S      25          2629.9974710    0.154328967295
      9   S      26           479.0573224    0.535328142282
      9   S      27           129.6516070    0.444634542185

     10   L      28           219.8350255   -0.099967229187    0.155916274999
     10   L      29            51.0849322    0.399512826089    0.607683718598
     10   L      30            16.6144055    0.700115468880    0.391957393099

     11   L      31            20.6524416   -0.219620369005    0.010587604289
     11   L      32             5.7619788    0.225595433605    0.595167005266
     11   L      33             2.2551994    0.900398426019    0.462001011973

     12   D      34            22.3657496    0.168659606013
     12   D      35             7.0128139    0.584798481745
     12   D      36             2.7316638    0.405677952331

     13   L      37             1.3960375   -0.308844121382   -0.121546859998
     13   L      38             0.5152256    0.019606411652    0.571522760389
     13   L      39             0.2275291    1.131034441567    0.549894947089

 C         

     14   S      40            71.6168373    0.154328967295
     14   S      41            13.0450963    0.535328142282
     14   S      42             3.5305122    0.444634542185

     15   L      43             2.9412494   -0.099967229187    0.155916274999
     15   L      44             0.6834831    0.399512826089    0.607683718598
     15   L      45             0.2222899    0.700115468880    0.391957393099

 H         

     16   S      46             3.4252509    0.154328967295
     16   S      47             0.6239137    0.535328142282
     16   S      48             0.1688554    0.444634542185

 H         

     17   S      49             3.4252509    0.154328967295
     17   S      50             0.6239137    0.535328142282
     17   S      51             0.1688554    0.444634542185

 H         

     18   S      52             3.4252509    0.154328967295
     18   S      53             0.6239137    0.535328142282
     18   S      54             0.1688554    0.444634542185

 H         

     19   S      55             3.4252509    0.154328967295
     19   S      56             0.6239137    0.535328142282
     19   S      57             0.1688554    0.444634542185

 H         

     20   S      58             3.4252509    0.154328967295
     20   S      59             0.6239137    0.535328142282
     20   S      60             0.1688554    0.444634542185

 H         

     21   S      61             3.4252509    0.154328967295
     21   S      62             0.6239137    0.535328142282
     21   S      63             0.1688554    0.444634542185

 H         

     22   S      64             3.4252509    0.154328967295
     22   S      65             0.6239137    0.535328142282
     22   S      66             0.1688554    0.444634542185

 H         

     23   S      67             3.4252509    0.154328967295
     23   S      68             0.6239137    0.535328142282
     23   S      69             0.1688554    0.444634542185

 TOTAL NUMBER OF BASIS SET SHELLS             =   23
 NUMBER OF CARTESIAN GAUSSIAN BASIS FUNCTIONS =   52
 NUMBER OF ELECTRONS                          =   72
 CHARGE OF MOLECULE                           =    1
 SPIN MULTIPLICITY                            =    1
 NUMBER OF OCCUPIED ORBITALS (ALPHA)          =   36
 NUMBER OF OCCUPIED ORBITALS (BETA )          =   36
 TOTAL NUMBER OF ATOMS                        =   14
 THE NUCLEAR REPULSION ENERGY IS      433.0044247426

     $CONTRL OPTIONS
     ---------------
 SCFTYP=RHF          RUNTYP=OPTIMIZE     EXETYP=RUN     
 MPLEVL=       0     CITYP =NONE         CCTYP =NONE         VBTYP =NONE    
 DFTTYP=NONE         TDDFT =NONE    
 MULT  =       1     ICHARG=       1     NZVAR =       0     COORD =UNIQUE  
 PP    =NONE         RELWFN=NONE         LOCAL =NONE         NUMGRD=       F
 ISPHER=      -1     NOSYM =       0     MAXIT =      30     UNITS =ANGS    
 PLTORB=       F     MOLPLT=       F     AIMPAC=       F     FRIEND=        
 NPRINT=       7     IREST =       0     GEOM  =INPUT   
 NORMF =       0     NORMP =       0     ITOL  =      20     ICUT  =       9
 INTTYP=BEST         GRDTYP=BEST         QMTTOL= 1.0E-06

     $SYSTEM OPTIONS
     ---------------
  REPLICATED MEMORY=     1000000 WORDS (ON EVERY NODE).
 DISTRIBUTED MEMDDI=           0 MILLION WORDS IN AGGREGATE,
 MEMDDI DISTRIBUTED OVER   1 PROCESSORS IS           0 WORDS/PROCESSOR.
 TOTAL MEMORY REQUESTED ON EACH PROCESSOR=     1000000 WORDS.
 TIMLIM=      525600.00 MINUTES, OR     365.0 DAYS.
 PARALL= F  BALTYP=  DLB     KDIAG=    0  COREFL= F
 MXSEQ2=     300 MXSEQ3=     150  mem10=         0

          ----------------
          PROPERTIES INPUT
          ----------------

     MOMENTS            FIELD           POTENTIAL          DENSITY
 IEMOM =       1   IEFLD =       0   IEPOT =       0   IEDEN =       0
 WHERE =COMASS     WHERE =NUCLEI     WHERE =NUCLEI     WHERE =NUCLEI  
 OUTPUT=BOTH       OUTPUT=BOTH       OUTPUT=BOTH       OUTPUT=BOTH    
 IEMINT=       0   IEFINT=       0                     IEDINT=       0
                                                       MORB  =       0
          EXTRAPOLATION IN EFFECT
          SOSCF IN EFFECT
 ORBITAL PRINTING OPTION: NPREO=     1    52     2     1

     -------------------------------
     INTEGRAL TRANSFORMATION OPTIONS
     -------------------------------
     NWORD  =            0
     CUTOFF = 1.0E-09     MPTRAN =       0
     DIRTRF =       F     AOINTS =DUP     

          ----------------------
          INTEGRAL INPUT OPTIONS
          ----------------------
 NOPK  =       1 NORDER=       0 SCHWRZ=       T

     ------------------------------------------
     THE POINT GROUP IS C1 , NAXIS= 0, ORDER= 1
     ------------------------------------------

     DIMENSIONS OF THE SYMMETRY SUBSPACES ARE
 A   =   52

 ..... DONE SETTING UP THE RUN .....
 STEP CPU TIME =     0.02 TOTAL CPU TIME =          0.0 (      0.0 MIN)
 TOTAL WALL CLOCK TIME=          0.0 SECONDS, CPU UTILIZATION IS    50.00%


          -----------------------------
          STATIONARY POINT LOCATION RUN
          -----------------------------

 OBTAINING INITIAL HESSIAN, HESS=CALC    

     ---------------------------------
     HESSIAN MATRIX CONTROL PARAMETERS
     ---------------------------------
     METHOD=ANALYTIC   NVIB  =       2   VIBSIZ= 0.01000
     RDHESS=       F   PURIFY=       F   PRTIFC=       F
     VIBANL=       F   DECOMP=       F   PROJCT=       F
     SCLFAC= 1.00000   PRTSCN=       F   NPRT  =       0
     PULCOR=       F   NPUN  =       0   REDOVB=       T
     HSSTYP=GENERAL 
 Old integral subroutine is used

     ------------------------------
     CPHF RESPONSE SOLUTION OPTIONS
     ------------------------------
     POLAR  =       F     NWORD  =       0
     CPHF   =AO      

          ********************
          1 ELECTRON INTEGRALS
          ********************
 ...... END OF ONE-ELECTRON INTEGRALS ......
 STEP CPU TIME =     0.01 TOTAL CPU TIME =          0.0 (      0.0 MIN)
 TOTAL WALL CLOCK TIME=          0.1 SECONDS, CPU UTILIZATION IS    50.00%

          -------------
          GUESS OPTIONS
          -------------
          GUESS =HUCKEL            NORB  =       0          NORDER=       0
          MIX   =       F          PRTMO =       F          PUNMO =       F
          TOLZ  = 1.0E-08          TOLE  = 1.0E-05
          SYMDEN=       F          PURIFY=       F

 INITIAL GUESS ORBITALS GENERATED BY HUCKEL   ROUTINE.
 HUCKEL GUESS REQUIRES     39958 WORDS.

 SYMMETRIES FOR INITIAL GUESS ORBITALS FOLLOW.   BOTH SET(S).
    36 ORBITALS ARE OCCUPIED (   19 CORE ORBITALS).
    20=A       21=A       22=A       23=A       24=A       25=A       26=A   
    27=A       28=A       29=A       30=A       31=A       32=A       33=A   
    34=A       35=A       36=A       37=A       38=A       39=A       40=A   
    41=A       42=A       43=A       44=A       45=A       46=A   
 ...... END OF INITIAL ORBITAL SELECTION ......
 STEP CPU TIME =     0.02 TOTAL CPU TIME =          0.0 (      0.0 MIN)
 TOTAL WALL CLOCK TIME=          0.1 SECONDS, CPU UTILIZATION IS    71.43%

                    ----------------------
                    AO INTEGRAL TECHNOLOGY
                    ----------------------
     S,P,L SHELL ROTATED AXIS INTEGRALS, REPROGRAMMED BY
        KAZUYA ISHIMURA (IMS) AND JOSE SIERRA (SYNSTAR).
     S,P,D,L SHELL ROTATED AXIS INTEGRALS PROGRAMMED BY
        KAZUYA ISHIMURA (INSTITUTE FOR MOLECULAR SCIENCE).
     S,P,D,F,G SHELL TO TOTAL QUARTET ANGULAR MOMENTUM SUM 5,
        ERIC PROGRAM BY GRAHAM FLETCHER (ELORET AND NASA ADVANCED
        SUPERCOMPUTING DIVISION, AMES RESEARCH CENTER).
     S,P,D,F,G,L SHELL GENERAL RYS QUADRATURE PROGRAMMED BY
        MICHEL DUPUIS (PACIFIC NORTHWEST NATIONAL LABORATORY).

          --------------------
          2 ELECTRON INTEGRALS
          --------------------

 THE -PK- OPTION IS OFF, THE INTEGRALS ARE NOT IN SUPERMATRIX FORM.
 STORING   15000 INTEGRALS/RECORD ON DISK, USING 12 BYTES/INTEGRAL.
 TWO ELECTRON INTEGRAL EVALUATION REQUIRES   90672 WORDS OF MEMORY.
 SCHWARZ INEQUALITY OVERHEAD:      1322 INTEGRALS, T=        0.00
 II,JST,KST,LST =  1  1  1  1 NREC =         1 INTLOC =    1
 II,JST,KST,LST =  2  1  1  1 NREC =         1 INTLOC =    2
 II,JST,KST,LST =  3  1  1  1 NREC =         1 INTLOC =   34
 II,JST,KST,LST =  4  1  1  1 NREC =         1 INTLOC =  142
 II,JST,KST,LST =  5  1  1  1 NREC =         1 INTLOC = 1362
 II,JST,KST,LST =  6  1  1  1 NREC =         1 INTLOC = 1946
 II,JST,KST,LST =  7  1  1  1 NREC =         1 INTLOC = 6820
 II,JST,KST,LST =  8  1  1  1 NREC =         1 INTLOC = 8510
 II,JST,KST,LST =  9  1  1  1 NREC =         2 INTLOC = 5970
 II,JST,KST,LST = 10  1  1  1 NREC =         2 INTLOC = 9081
 II,JST,KST,LST = 11  1  1  1 NREC =         3 INTLOC =10939
 II,JST,KST,LST = 12  1  1  1 NREC =         5 INTLOC = 9663
 II,JST,KST,LST = 13  1  1  1 NREC =        10 INTLOC = 2870
 II,JST,KST,LST = 14  1  1  1 NREC =        15 INTLOC = 7779
 II,JST,KST,LST = 15  1  1  1 NREC =        16 INTLOC = 7983
 II,JST,KST,LST = 16  1  1  1 NREC =        25 INTLOC = 9667
 II,JST,KST,LST = 17  1  1  1 NREC =        28 INTLOC = 5053
 II,JST,KST,LST = 18  1  1  1 NREC =        31 INTLOC = 1120
 II,JST,KST,LST = 19  1  1  1 NREC =        33 INTLOC =11411
 II,JST,KST,LST = 20  1  1  1 NREC =        36 INTLOC = 6330
 II,JST,KST,LST = 21  1  1  1 NREC =        39 INTLOC =10848
 II,JST,KST,LST = 22  1  1  1 NREC =        43 INTLOC = 6852
 II,JST,KST,LST = 23  1  1  1 NREC =        47 INTLOC = 6518
 SCHWARZ INEQUALITY TEST SKIPPED        7515 INTEGRAL BLOCKS.
 TOTAL NUMBER OF NONZERO TWO-ELECTRON INTEGRALS =              759989
         51 INTEGRAL RECORDS WERE STORED ON DISK FILE  8.
  ...... END OF TWO-ELECTRON INTEGRALS .....
 STEP CPU TIME =     0.14 TOTAL CPU TIME =          0.2 (      0.0 MIN)
 TOTAL WALL CLOCK TIME=          0.2 SECONDS, CPU UTILIZATION IS    86.36%

          --------------------------
                 RHF SCF CALCULATION
          --------------------------

     NUCLEAR ENERGY =       433.0044247426
     MAXIT =   30     NPUNCH=    2
     EXTRAP=T  DAMP=F  SHIFT=F  RSTRCT=F  DIIS=F  DEM=F  SOSCF=T
     DENSITY MATRIX CONV=  1.00E-05
     SOSCF WILL OPTIMIZE     576 ORBITAL ROTATIONS, SOGTOL=   0.250
     MEMORY REQUIRED FOR RHF ITERS=     51960 WORDS.

 ITER EX DEM     TOTAL ENERGY        E CHANGE  DENSITY CHANGE     ORB. GRAD
   1  0  0    -2736.7280550453 -2736.7280550453  12.324225756   0.000000000
          ---------------START SECOND ORDER SCF---------------
   2  1  0    -2737.4005781135    -0.6725230682   0.190891565   0.033338182
   3  2  0    -2737.4157583320    -0.0151802185   0.040851978   0.007823670
   4  3  0    -2737.4172810038    -0.0015226718   0.018255697   0.003398217
   5  4  0    -2737.4173792142    -0.0000982104   0.002924116   0.000464772
   6  5  0    -2737.4173923575    -0.0000131433   0.001259813   0.000272315
   7  6  0    -2737.4173937881    -0.0000014306   0.000391640   0.000055937
   8  7  0    -2737.4173939686    -0.0000001805   0.000088302   0.000021664
   9  8  0    -2737.4173939870    -0.0000000184   0.000032708   0.000006697
  10  9  0    -2737.4173939881    -0.0000000011   0.000006971   0.000001302
  11 10  0    -2737.4173939881    -0.0000000001   0.000001733   0.000000365

          -----------------
          DENSITY CONVERGED
          -----------------
     TIME TO FORM FOCK OPERATORS=       0.1 SECONDS (       0.0 SEC/ITER)
     TIME TO SOLVE SCF EQUATIONS=       0.1 SECONDS (       0.0 SEC/ITER)

 FINAL RHF ENERGY IS    -2737.4173939881 AFTER  11 ITERATIONS

          ------------
          EIGENVECTORS
          ------------

                      1          2          3          4          5
                 -485.1750   -64.0808   -58.2117   -58.2103   -58.2091
                     A          A          A          A          A   
    1  C  1  S   -0.000000  -0.000008  -0.000000  -0.000001  -0.000001
    2  C  1  S    0.000001   0.000219  -0.000007   0.000021   0.000026
    3  C  1  X    0.000000   0.000033  -0.000005   0.000005   0.000001
    4  C  1  Y   -0.000001  -0.000099   0.000004  -0.000004  -0.000006
    5  C  1  Z   -0.000001  -0.000159   0.000011  -0.000009   0.000008
    6  C  2  S   -0.000000  -0.000004   0.000001  -0.000000  -0.000001
    7  C  2  S    0.000000   0.000030  -0.000004   0.000001   0.000001
    8  C  2  X    0.000000   0.000008  -0.000001   0.000001   0.000005
    9  C  2  Y   -0.000000  -0.000006   0.000000   0.000001  -0.000000
   10  C  2  Z   -0.000000  -0.000040   0.000002  -0.000000  -0.000002
   11  C  3  S   -0.000000  -0.000007  -0.000000   0.000001  -0.000001
   12  C  3  S    0.000002   0.000238  -0.000013  -0.000012   0.000031
   13  C  3  X    0.000000   0.000009  -0.000005  -0.000003  -0.000002
   14  C  3  Y    0.000000   0.000076  -0.000003  -0.000000   0.000007
   15  C  3  Z   -0.000001  -0.000178   0.000013   0.000007   0.000003
   16  C  4  S    0.000002   0.000364  -0.000031   0.000026   0.000001
   17  C  4  S   -0.000013  -0.002180   0.000206  -0.000180  -0.000007
   18  C  4  X   -0.000009  -0.001585   0.000150  -0.000109   0.000060
   19  C  4  Y   -0.000001  -0.000271   0.000046  -0.000014   0.000008
   20  C  4  Z    0.000010   0.001801  -0.000158   0.000139   0.000040
   21  BR 5  S    0.994693   0.419597   0.000842  -0.000085  -0.000008
   22  BR 5  S    0.014821  -1.059843  -0.002143   0.000216   0.000020
   23  BR 5  X   -0.000006   0.001185  -0.636084   0.153369   0.746797
   24  BR 5  Y    0.000001  -0.000124   0.163240   0.977437  -0.061691
   25  BR 5  Z    0.000006  -0.001351   0.744667  -0.083257   0.651427
   26  BR 5  S   -0.073402   2.443252   0.004633  -0.000463  -0.000040
   27  BR 5  X    0.000003   0.000382  -0.011966   0.002875   0.013957
   28  BR 5  Y   -0.000000  -0.000020   0.003066   0.018309  -0.001154
   29  BR 5  Z   -0.000003  -0.000413   0.014006  -0.001563   0.012173
   30  BR 5 XX    0.032046  -1.127636  -0.002086   0.000198  -0.000070
   31  BR 5 YY    0.032046  -1.127653  -0.002158   0.000226   0.000018
   32  BR 5 ZZ    0.032046  -1.127643  -0.002063   0.000205   0.000105
   33  BR 5 XY   -0.000000   0.000002  -0.000015  -0.000063   0.000009
   34  BR 5 XZ   -0.000001   0.000013  -0.000095   0.000017   0.000013
   35  BR 5 YZ    0.000000  -0.000007   0.000017   0.000072  -0.000001
   36  BR 5  S    0.000097   0.019345  -0.000171   0.000025   0.000007
   37  BR 5  X   -0.000009  -0.001565   0.000987  -0.000222  -0.000984
   38  BR 5  Y    0.000000   0.000065  -0.000229  -0.001334   0.000086
   39  BR 5  Z    0.000010   0.001675  -0.001142   0.000133  -0.000850
   40  C  6  S    0.000002   0.000358  -0.000036  -0.000017   0.000002
   41  C  6  S   -0.000012  -0.002130   0.000235   0.000122  -0.000011
   42  C  6  X   -0.000009  -0.001607   0.000172   0.000077   0.000050
   43  C  6  Y    0.000002   0.000396  -0.000067  -0.000004   0.000006
   44  C  6  Z    0.000010   0.001823  -0.000193  -0.000078   0.000075
   45  H  7  S   -0.000002  -0.000434   0.000013  -0.000031  -0.000034
   46  H  8  S   -0.000000  -0.000044   0.000002  -0.000003  -0.000007
   47  H  9  S   -0.000000  -0.000035   0.000004  -0.000001   0.000000
   48  H 10  S    0.000000   0.000003   0.000000   0.000000   0.000002
   49  H 11  S   -0.000000  -0.000042   0.000002   0.000001  -0.000006
   50  H 12  S   -0.000003  -0.000514   0.000024   0.000019  -0.000047
   51  H 13  S   -0.000000  -0.000098  -0.000010  -0.000009   0.000019
   52  H 14  S   -0.000001  -0.000169   0.000017  -0.000001  -0.000026

                      6          7          8          9         10
                  -11.3737   -11.3682   -11.2694   -11.2668   -11.2426
                     A          A          A          A          A   
    1  C  1  S   -0.000771  -0.000267   0.991612   0.025426   0.004653
    2  C  1  S   -0.005453   0.000248   0.037295   0.000940  -0.005804
    3  C  1  X   -0.003537   0.000049   0.000502  -0.000217   0.002752
    4  C  1  Y   -0.001266  -0.000003   0.000876  -0.000286  -0.003342
    5  C  1  Z   -0.001356   0.000123   0.000294   0.000223  -0.000675
    6  C  2  S   -0.000346  -0.000362  -0.003595  -0.003965   0.991919
    7  C  2  S    0.000069   0.000045  -0.005853  -0.006220   0.037379
    8  C  2  X   -0.000291  -0.000271  -0.002439  -0.002539   0.001145
    9  C  2  Y   -0.000063   0.000073   0.003501  -0.003286   0.000072
   10  C  2  Z   -0.000183  -0.000193   0.000661   0.001080   0.000196
   11  C  3  S   -0.000335  -0.000918  -0.025308   0.991621   0.004823
   12  C  3  S   -0.000003  -0.005452  -0.000966   0.037255  -0.005868
   13  C  3  X   -0.000093  -0.003477  -0.000262   0.000434   0.002738
   14  C  3  Y    0.000178   0.001013   0.000355  -0.000873   0.003293
   15  C  3  Z    0.000089  -0.001684   0.000146   0.000142  -0.001066
   16  C  4  S    0.992191  -0.013235   0.001729   0.000443   0.000461
   17  C  4  S    0.034634  -0.006510  -0.005973   0.000042   0.000014
   18  C  4  X    0.000512   0.000507   0.003847   0.000143   0.000200
   19  C  4  Y    0.001431  -0.004502   0.001527   0.000018  -0.000178
   20  C  4  Z   -0.001440  -0.000267   0.001622   0.000152  -0.000077
   21  BR 5  S    0.000031   0.000029   0.000000   0.000001  -0.000000
   22  BR 5  S   -0.000098  -0.000091   0.000001   0.000001   0.000000
   23  BR 5  X    0.000069   0.000059   0.000002   0.000004  -0.000003
   24  BR 5  Y    0.000052  -0.000059   0.000000  -0.000001   0.000000
   25  BR 5  Z   -0.000071  -0.000065  -0.000001  -0.000001  -0.000000
   26  BR 5  S   -0.000580  -0.000544  -0.000007  -0.000010   0.000002
   27  BR 5  X   -0.000233  -0.000199  -0.000009  -0.000014   0.000009
   28  BR 5  Y   -0.000179   0.000201  -0.000001   0.000003  -0.000000
   29  BR 5  Z    0.000240   0.000221   0.000003   0.000005   0.000001
   30  BR 5 XX    0.000273   0.000258   0.000009   0.000013  -0.000002
   31  BR 5 YY    0.000293   0.000274   0.000007   0.000010  -0.000003
   32  BR 5 ZZ    0.000268   0.000256   0.000007   0.000010  -0.000003
   33  BR 5 XY   -0.000020   0.000022   0.000002  -0.000002  -0.000000
   34  BR 5 XZ    0.000034   0.000030  -0.000002  -0.000002  -0.000000
   35  BR 5 YZ    0.000021  -0.000023  -0.000001   0.000001   0.000000
   36  BR 5  S   -0.003018  -0.002816   0.000072   0.000067   0.000002
   37  BR 5  X    0.002212   0.001932  -0.000041  -0.000023  -0.000048
   38  BR 5  Y    0.001649  -0.001840  -0.000050   0.000036   0.000000
   39  BR 5  Z   -0.002325  -0.002113   0.000010  -0.000001  -0.000020
   40  C  6  S    0.013884   0.992140   0.000278   0.001902   0.000491
   41  C  6  S   -0.005041   0.035076   0.000377  -0.005825  -0.000015
   42  C  6  X    0.000372  -0.000964  -0.000167   0.003873   0.000135
   43  C  6  Y    0.004063  -0.003545  -0.000000  -0.001101   0.000096
   44  C  6  Z   -0.000699   0.000518   0.000013   0.001834  -0.000130
   45  H  7  S   -0.000003   0.000064  -0.006711  -0.000109   0.000003
   46  H  8  S    0.000044  -0.000054  -0.006621  -0.000350   0.000076
   47  H  9  S   -0.000112  -0.000050   0.000056   0.000032  -0.006751
   48  H 10  S   -0.000156  -0.000150   0.000137   0.000152  -0.006576
   49  H 11  S   -0.000083   0.000060  -0.000012  -0.006588   0.000090
   50  H 12  S    0.000081   0.000019   0.000183  -0.006732  -0.000027
   51  H 13  S   -0.006269   0.000110   0.000084  -0.000091  -0.000070
   52  H 14  S   -0.000270  -0.006428  -0.000045   0.000040   0.000075

                     11         12         13         14         15
                   -9.5613    -7.2546    -7.2456    -7.2397    -2.6416
                     A          A          A          A          A   
    1  C  1  S    0.000011   0.000031   0.000006   0.000001  -0.000029
    2  C  1  S    0.000242   0.000171  -0.000469  -0.000587   0.000152
    3  C  1  X   -0.000006   0.000059  -0.000046   0.000066   0.000356
    4  C  1  Y   -0.000142  -0.000147   0.000120   0.000182   0.000484
    5  C  1  Z   -0.000152  -0.000180   0.000144  -0.000228  -0.000542
    6  C  2  S   -0.000011  -0.000018   0.000004   0.000023  -0.000012
    7  C  2  S    0.000048   0.000116  -0.000022  -0.000059   0.000000
    8  C  2  X    0.000029   0.000057  -0.000021  -0.000150   0.000040
    9  C  2  Y   -0.000007  -0.000012  -0.000038   0.000011  -0.000001
   10  C  2  Z   -0.000056  -0.000068   0.000009   0.000049   0.000060
   11  C  3  S    0.000018   0.000039  -0.000006  -0.000005  -0.000042
   12  C  3  S    0.000260   0.000261   0.000306  -0.000668   0.000631
   13  C  3  X   -0.000047   0.000021   0.000025   0.000146   0.000688
   14  C  3  Y    0.000119   0.000138   0.000025  -0.000222  -0.000600
   15  C  3  Z   -0.000178  -0.000206  -0.000133  -0.000129  -0.000595
   16  C  4  S    0.000607   0.000932  -0.000704  -0.000021   0.002528
   17  C  4  S   -0.003020  -0.006191   0.004561   0.000182  -0.007408
   18  C  4  X   -0.002072  -0.004130   0.002643  -0.001596  -0.005420
   19  C  4  Y   -0.000401  -0.001315   0.000138  -0.000216  -0.004671
   20  C  4  Z    0.002341   0.004407  -0.003410  -0.001099   0.005478
   21  BR 5  S    0.170425  -0.002558   0.000193   0.000034   0.000151
   22  BR 5  S   -0.524634   0.007915  -0.000596  -0.000105  -0.000420
   23  BR 5  X    0.003851   0.272087  -0.049317  -0.313161   0.001348
   24  BR 5  Y   -0.000272  -0.049692  -0.414344   0.022043  -0.000392
   25  BR 5  Z   -0.004294  -0.312721   0.022847  -0.276002  -0.001589
   26  BR 5  S    2.305708  -0.033549   0.002513   0.000425   0.002736
   27  BR 5  X   -0.009640  -0.694076   0.125839   0.799202  -0.003482
   28  BR 5  Y    0.000683   0.126769   1.057277  -0.056253   0.001018
   29  BR 5  Z    0.010751   0.797737  -0.058291   0.704375   0.004112
   30  BR 5 XX   -0.551381   0.008728  -0.001110  -0.004769  -0.228301
   31  BR 5 YY   -0.551456   0.004512   0.000140  -0.000085   0.638956
   32  BR 5 ZZ   -0.550931   0.009932  -0.000762   0.004571  -0.412604
   33  BR 5 XY   -0.000134  -0.000633  -0.003675   0.000407   0.176692
   34  BR 5 XZ   -0.001859  -0.005651   0.000708   0.000644   0.721337
   35  BR 5 YZ    0.000289   0.000701   0.004129  -0.000034  -0.164974
   36  BR 5  S    0.031313   0.006318  -0.000593  -0.000179   0.005603
   37  BR 5  X   -0.002898  -0.034146   0.005673   0.033368  -0.005157
   38  BR 5  Y    0.000128   0.005793   0.045965  -0.002449   0.001041
   39  BR 5  Z    0.003125   0.038971  -0.002903   0.029229   0.005699
   40  C  6  S    0.000594   0.001008   0.000544  -0.000034   0.003466
   41  C  6  S   -0.002976  -0.006717  -0.003545   0.000220  -0.011473
   42  C  6  X   -0.002093  -0.004514  -0.002227  -0.001395  -0.007565
   43  C  6  Y    0.000554   0.001766  -0.000005  -0.000135   0.006869
   44  C  6  Z    0.002362   0.005012   0.002273  -0.001908   0.008936
   45  H  7  S   -0.000580  -0.000414   0.000822   0.000947   0.000264
   46  H  8  S   -0.000054  -0.000075   0.000059   0.000160   0.000022
   47  H  9  S   -0.000042  -0.000092   0.000009  -0.000005  -0.000114
   48  H 10  S    0.000006   0.000002  -0.000004  -0.000056   0.000008
   49  H 11  S   -0.000053  -0.000074  -0.000017   0.000141   0.000011
   50  H 12  S   -0.000686  -0.000646  -0.000548   0.001305   0.000084
   51  H 13  S   -0.000236   0.000068   0.000441  -0.000626   0.001035
   52  H 14  S   -0.000203  -0.000349   0.000001   0.000572  -0.000554

                     16         17         18         19         20
                   -2.6399    -2.6337    -2.6255    -2.6248    -1.4027
                     A          A          A          A          A   
    1  C  1  S   -0.000043  -0.000014  -0.000010   0.000050  -0.066486
    2  C  1  S    0.000920   0.001034  -0.000696  -0.000495   0.164874
    3  C  1  X    0.000696   0.000306  -0.000001  -0.000509   0.034465
    4  C  1  Y    0.000108   0.000131   0.000027  -0.000213   0.041814
    5  C  1  Z   -0.000537   0.000388  -0.000173   0.000255   0.014174
    6  C  2  S   -0.000005  -0.000026   0.000007  -0.000017  -0.049520
    7  C  2  S    0.000005   0.000030  -0.000031   0.000099   0.118979
    8  C  2  X    0.000029   0.000180  -0.000053   0.000143   0.041175
    9  C  2  Y   -0.000007  -0.000009  -0.000062  -0.000010   0.000312
   10  C  2  Z    0.000011  -0.000009  -0.000006   0.000006  -0.004637
   11  C  3  S    0.000025  -0.000004   0.000002   0.000049  -0.066240
   12  C  3  S   -0.000632   0.001288   0.000487  -0.000145   0.163024
   13  C  3  X   -0.000507   0.000333   0.000022  -0.000477   0.033958
   14  C  3  Y   -0.000026  -0.000005   0.000005   0.000277  -0.039485
   15  C  3  Z    0.000366   0.000367   0.000046   0.000156   0.018094
   16  C  4  S    0.003386  -0.000030  -0.000013  -0.001452  -0.138633
   17  C  4  S   -0.014854   0.000204   0.000253   0.005541   0.368036
   18  C  4  X   -0.008223   0.003936  -0.002383   0.003396  -0.000623
   19  C  4  Y   -0.003669   0.000210   0.000066   0.000054   0.096210
   20  C  4  Z    0.009500   0.002679  -0.001695  -0.004105  -0.051492
   21  BR 5  S   -0.000024  -0.000006  -0.000002  -0.000144  -0.012948
   22  BR 5  S    0.000084   0.000022   0.000008   0.000427   0.040414
   23  BR 5  X    0.000349   0.001636  -0.000173  -0.000226  -0.011452
   24  BR 5  Y    0.001935  -0.000109  -0.000013  -0.000095   0.000018
   25  BR 5  Z   -0.000222   0.001420  -0.000135   0.000302   0.011589
   26  BR 5  S   -0.000216  -0.000051  -0.000008  -0.002235  -0.196267
   27  BR 5  X   -0.000910  -0.004367   0.000465   0.000551   0.034194
   28  BR 5  Y   -0.005070   0.000286   0.000032   0.000249  -0.000043
   29  BR 5  Z    0.000570  -0.003805   0.000356  -0.000747  -0.034603
   30  BR 5 XX   -0.143968  -0.838493   0.187605  -0.434271   0.040457
   31  BR 5 YY    0.225211  -0.017036  -0.107860   0.727239   0.050358
   32  BR 5 ZZ   -0.081115   0.855558  -0.079743  -0.291415   0.039922
   33  BR 5 XY   -0.623848   0.145232   0.731941   0.149838   0.000266
   34  BR 5 XZ    0.126866   0.136696   0.042995  -0.665028   0.014981
   35  BR 5 YZ    0.736239   0.056567   0.653401   0.015367  -0.000018
   36  BR 5  S    0.001054   0.000333   0.000181  -0.002094   0.299784
   37  BR 5  X   -0.000847  -0.000478  -0.000144   0.002158  -0.077178
   38  BR 5  Y   -0.004090   0.000293   0.000068   0.000152  -0.000356
   39  BR 5  Z    0.000948   0.000029   0.000146  -0.002403   0.077415
   40  C  6  S   -0.002221   0.000369   0.000102  -0.000943  -0.135094
   41  C  6  S    0.010926  -0.001363  -0.000432   0.003122   0.359054
   42  C  6  X    0.006342   0.003092   0.001070   0.002658  -0.009201
   43  C  6  Y   -0.002525   0.000620  -0.000080  -0.000113  -0.109155
   44  C  6  Z   -0.006745   0.004922   0.001681  -0.002551  -0.035626
   45  H  7  S   -0.000377  -0.000409   0.000803  -0.000165   0.027574
   46  H  8  S   -0.000071  -0.000111   0.000099  -0.000022   0.020430
   47  H  9  S   -0.000017   0.000006  -0.000003   0.000067   0.019079
   48  H 10  S    0.000007   0.000053  -0.000011   0.000028   0.013941
   49  H 11  S    0.000040  -0.000125  -0.000034  -0.000068   0.019827
   50  H 12  S    0.000303  -0.000787  -0.000589  -0.000684   0.027694
   51  H 13  S    0.000855  -0.000138  -0.000511  -0.000742   0.055195
   52  H 14  S    0.000142  -0.001247  -0.000261  -0.000006   0.051643

                     21         22         23         24         25
                   -1.2264    -1.1500    -1.0726    -0.9676    -0.9526
                     A          A          A          A          A   
    1  C  1  S    0.102171  -0.141150  -0.010655   0.058186   0.087758
    2  C  1  S   -0.278666   0.406413   0.033080  -0.183818  -0.279099
    3  C  1  X    0.040655   0.052552  -0.071510  -0.145561   0.079995
    4  C  1  Y   -0.064876  -0.001618   0.015749   0.083767   0.028761
    5  C  1  Z   -0.011127   0.018464  -0.038281   0.058988   0.055158
    6  C  2  S    0.139640  -0.000292  -0.078573  -0.138713  -0.030708
    7  C  2  S   -0.376157   0.000879   0.231618   0.436039   0.097272
    8  C  2  X   -0.072565   0.000147  -0.012300  -0.092986  -0.035071
    9  C  2  Y    0.000707  -0.111960   0.006394  -0.026143   0.138805
   10  C  2  Z    0.011028   0.005537  -0.021203   0.071850   0.001855
   11  C  3  S    0.100219   0.135256  -0.027342   0.095993  -0.067946
   12  C  3  S   -0.273152  -0.388511   0.083605  -0.304178   0.217365
   13  C  3  X    0.040374  -0.050084  -0.070870  -0.103958  -0.135435
   14  C  3  Y    0.065444   0.000025  -0.019739  -0.088146   0.026798
   15  C  3  Z   -0.016683  -0.019541  -0.042631   0.092274  -0.035828
   16  C  4  S   -0.033594  -0.094605   0.091747   0.009198  -0.113035
   17  C  4  S    0.100931   0.297833  -0.290473  -0.034654   0.396603
   18  C  4  X    0.124507  -0.051592   0.037231   0.111310   0.196478
   19  C  4  Y    0.055562  -0.119518  -0.078164   0.136080  -0.177874
   20  C  4  Z   -0.005610  -0.040154  -0.088175   0.104348   0.101019
   21  BR 5  S   -0.016457  -0.000455  -0.026851  -0.000185   0.003035
   22  BR 5  S    0.052026   0.001438   0.086019   0.000496  -0.009844
   23  BR 5  X   -0.007115   0.000096  -0.001310   0.004760   0.001657
   24  BR 5  Y   -0.000154  -0.007592   0.000043   0.002020  -0.015612
   25  BR 5  Z    0.010367   0.000386  -0.001429   0.006897   0.004415
   26  BR 5  S   -0.246782  -0.006869  -0.398724  -0.003207   0.044632
   27  BR 5  X    0.021316  -0.000285   0.003930  -0.014317  -0.004986
   28  BR 5  Y    0.000471   0.022779  -0.000119  -0.006078   0.046976
   29  BR 5  Z   -0.031043  -0.001161   0.004305  -0.020749  -0.013289
   30  BR 5 XX    0.056868   0.001968   0.091552   0.003632  -0.008345
   31  BR 5 YY    0.058231   0.001391   0.088453   0.002051  -0.010376
   32  BR 5 ZZ    0.051767   0.001309   0.094372  -0.003900  -0.012522
   33  BR 5 XY    0.000041  -0.005549   0.000389   0.000402  -0.004820
   34  BR 5 XZ    0.006593   0.000024  -0.004900   0.001734   0.000785
   35  BR 5 YZ    0.000059   0.004679  -0.000339  -0.001117   0.007611
   36  BR 5  S    0.427107   0.011891   0.769627   0.000070  -0.094418
   37  BR 5  X   -0.056408   0.000440  -0.023647   0.045925   0.017277
   38  BR 5  Y   -0.001629  -0.062301  -0.000998   0.018460  -0.139010
   39  BR 5  Z    0.081061   0.003002   0.000789   0.059436   0.036619
   40  C  6  S   -0.030232   0.100310   0.094405  -0.029441   0.095619
   41  C  6  S    0.090250  -0.311419  -0.297456   0.097523  -0.330951
   42  C  6  X    0.109074   0.072415   0.046080   0.135175  -0.026627
   43  C  6  Y   -0.061041  -0.063628   0.078079  -0.082126  -0.060700
   44  C  6  Z   -0.002436   0.029947  -0.139679   0.171779  -0.021602
   45  H  7  S   -0.054753   0.100609   0.028600  -0.112090  -0.121754
   46  H  8  S   -0.054292   0.101285   0.006797  -0.054055  -0.102863
   47  H  9  S   -0.077023  -0.000442   0.052481   0.186441   0.040599
   48  H 10  S   -0.069357   0.000709   0.073588   0.161368   0.044347
   49  H 11  S   -0.051445  -0.094567   0.020902  -0.104237   0.102061
   50  H 12  S   -0.054454  -0.092769   0.048274  -0.159294   0.080656
   51  H 13  S    0.038363   0.089210  -0.077057   0.008665   0.299730
   52  H 14  S    0.020813  -0.076994  -0.131751   0.118335  -0.138122

                     26         27         28         29         30
                   -0.8804    -0.8149    -0.7607    -0.7392    -0.7134
                     A          A          A          A          A   
    1  C  1  S   -0.047672   0.008901   0.002663  -0.003870   0.021897
    2  C  1  S    0.162513  -0.035160  -0.009494   0.010569  -0.079474
    3  C  1  X   -0.083544   0.102594   0.192951   0.120567   0.048145
    4  C  1  Y   -0.214114   0.039864   0.189218  -0.185068  -0.010504
    5  C  1  Z    0.010451   0.281732  -0.288810  -0.122949  -0.229308
    6  C  2  S    0.012213   0.011071  -0.001749   0.008663  -0.024477
    7  C  2  S   -0.037678  -0.036646   0.006995  -0.031145   0.087127
    8  C  2  X   -0.085336   0.138160   0.133036  -0.203895  -0.133470
    9  C  2  Y   -0.021081   0.035314   0.145728   0.124713  -0.004508
   10  C  2  Z    0.014311   0.284301  -0.129272   0.153501   0.048960
   11  C  3  S   -0.027324  -0.000300   0.000095  -0.002952   0.022088
   12  C  3  S    0.094580  -0.002524   0.001288   0.008828  -0.077399
   13  C  3  X   -0.028092   0.050787  -0.179752  -0.153890   0.301023
   14  C  3  Y    0.196167   0.016701  -0.092991   0.289910  -0.128959
   15  C  3  Z    0.038017   0.252970   0.136241   0.227658   0.198712
   16  C  4  S    0.027502  -0.008391  -0.002391  -0.007770   0.013624
   17  C  4  S   -0.100091   0.032414   0.015088   0.040279  -0.050971
   18  C  4  X    0.153974  -0.222808  -0.090472  -0.020855   0.164745
   19  C  4  Y   -0.235357  -0.124042  -0.047931   0.163855  -0.268025
   20  C  4  Z    0.168352  -0.009624  -0.074179  -0.222877  -0.040581
   21  BR 5  S   -0.005132  -0.008372  -0.005208   0.004299   0.003325
   22  BR 5  S    0.016847   0.027395   0.017169  -0.014230  -0.010775
   23  BR 5  X    0.015973   0.012705   0.015344  -0.020420  -0.018792
   24  BR 5  Y    0.001584  -0.002002  -0.021594  -0.010699  -0.002455
   25  BR 5  Z   -0.001528  -0.018695  -0.015145   0.016042  -0.000225
   26  BR 5  S   -0.074669  -0.122708  -0.075928   0.062383   0.049534
   27  BR 5  X   -0.048093  -0.038256  -0.046237   0.061565   0.056690
   28  BR 5  Y   -0.004778   0.006024   0.065099   0.032275   0.007408
   29  BR 5  Z    0.004577   0.056311   0.045623  -0.048342   0.000712
   30  BR 5 XX    0.023237   0.028357   0.019063  -0.016870  -0.012093
   31  BR 5 YY    0.013554   0.026158   0.016530  -0.012291  -0.013839
   32  BR 5 ZZ    0.016350   0.032537   0.018864  -0.015810  -0.008824
   33  BR 5 XY   -0.000037  -0.000579  -0.004698  -0.001990   0.000835
   34  BR 5 XZ   -0.006107  -0.005106  -0.004487   0.005266  -0.000078
   35  BR 5 YZ   -0.000035   0.000457   0.002346   0.000199   0.001143
   36  BR 5  S    0.170453   0.273810   0.177477  -0.149244  -0.103597
   37  BR 5  X    0.139333   0.111583   0.139419  -0.190582  -0.187287
   38  BR 5  Y    0.017131  -0.018483  -0.208259  -0.106417  -0.023508
   39  BR 5  Z   -0.003707  -0.166029  -0.137257   0.147536  -0.003641
   40  C  6  S   -0.030878   0.010334   0.018643   0.006705  -0.046924
   41  C  6  S    0.115359  -0.036250  -0.086155  -0.029876   0.194174
   42  C  6  X    0.103506  -0.190825  -0.016405   0.054851  -0.214952
   43  C  6  Y    0.277248   0.103619   0.067696  -0.138901   0.284752
   44  C  6  Z    0.235788  -0.001924   0.315022  -0.049580  -0.258342
   45  H  7  S    0.076147  -0.213960   0.201463   0.145711   0.165473
   46  H  8  S    0.185270   0.033643  -0.277662   0.040320  -0.128966
   47  H  9  S    0.011727   0.167697  -0.109615   0.149001   0.097082
   48  H 10  S    0.026007  -0.189722  -0.037565   0.059482   0.109713
   49  H 11  S    0.151640   0.050749   0.021986   0.300478  -0.165739
   50  H 12  S    0.010737  -0.183544  -0.119254  -0.184402  -0.179212
   51  H 13  S    0.167183  -0.026858  -0.042731  -0.189270   0.195627
   52  H 14  S    0.259111  -0.020198   0.206487  -0.090217  -0.059423

                     31         32         33         34         35
                   -0.6896    -0.6458    -0.6393    -0.6317    -0.6089
                     A          A          A          A          A   
    1  C  1  S   -0.017265  -0.017032   0.017983  -0.010181  -0.004355
    2  C  1  S    0.063463   0.068158  -0.073951   0.039845   0.018230
    3  C  1  X   -0.306897   0.048736   0.185830   0.124671   0.024729
    4  C  1  Y   -0.076539   0.264691  -0.375192   0.000591  -0.021585
    5  C  1  Z   -0.133388  -0.093541  -0.037190   0.049856   0.244152
    6  C  2  S    0.008787  -0.012127   0.001829  -0.007685  -0.012711
    7  C  2  S   -0.029168   0.046121  -0.008695   0.029909   0.048285
    8  C  2  X    0.344619   0.214627   0.009531   0.032437   0.076328
    9  C  2  Y    0.025640  -0.108522   0.422105   0.165514   0.064961
   10  C  2  Z    0.048622   0.291633   0.177080  -0.236796  -0.156172
   11  C  3  S   -0.031664   0.011052  -0.010286  -0.003102  -0.010458
   12  C  3  S    0.117139  -0.041487   0.042936   0.016054   0.045621
   13  C  3  X   -0.053762  -0.050347  -0.128329  -0.165576  -0.036885
   14  C  3  Y   -0.131249   0.105810  -0.366468  -0.068751  -0.150723
   15  C  3  Z    0.213209  -0.154427  -0.130087   0.220232   0.030919
   16  C  4  S    0.036697   0.016440   0.014810  -0.007817   0.028362
   17  C  4  S   -0.145453  -0.066360  -0.063415   0.012949  -0.094434
   18  C  4  X    0.334904   0.042215  -0.008684  -0.128388   0.025566
   19  C  4  Y    0.167637  -0.158875  -0.034587  -0.127171  -0.167181
   20  C  4  Z    0.154287  -0.094833  -0.000265   0.061798  -0.341636
   21  BR 5  S    0.000307   0.003896   0.000424   0.000722   0.002547
   22  BR 5  S   -0.001167  -0.012753  -0.001375  -0.002400  -0.008303
   23  BR 5  X    0.015078  -0.011471  -0.008796   0.016515  -0.005336
   24  BR 5  Y   -0.010731   0.022690   0.011221   0.063836  -0.044276
   25  BR 5  Z    0.021830   0.031203  -0.006659   0.023293   0.050393
   26  BR 5  S    0.003743   0.057608   0.006366   0.010515   0.037738
   27  BR 5  X   -0.045535   0.034559   0.026562  -0.049920   0.016020
   28  BR 5  Y    0.032386  -0.068475  -0.033872  -0.192709   0.133717
   29  BR 5  Z   -0.065892  -0.094142   0.020125  -0.070317  -0.152156
   30  BR 5 XX    0.000261  -0.012089  -0.001344  -0.002073  -0.008723
   31  BR 5 YY    0.000418  -0.014817  -0.001452  -0.003381  -0.010378
   32  BR 5 ZZ   -0.004054  -0.014086  -0.001679  -0.002178  -0.007573
   33  BR 5 XY    0.000345   0.000503   0.000389   0.002498  -0.001429
   34  BR 5 XZ    0.001463   0.000383  -0.000325   0.000630   0.000348
   35  BR 5 YZ    0.001576  -0.001736  -0.000998  -0.003352   0.000518
   36  BR 5  S   -0.018379  -0.127427  -0.013176  -0.025784  -0.080928
   37  BR 5  X    0.157139  -0.111720  -0.090561   0.172961  -0.048816
   38  BR 5  Y   -0.106774   0.227729   0.112703   0.644536  -0.452636
   39  BR 5  Z    0.214745   0.311258  -0.069126   0.236634   0.516108
   40  C  6  S    0.013343   0.013250  -0.003704  -0.009928  -0.009010
   41  C  6  S   -0.054692  -0.038439   0.018463   0.069363   0.032136
   42  C  6  X   -0.086926   0.331737   0.090625   0.150476   0.080414
   43  C  6  Y   -0.143858   0.171394  -0.041462   0.043376   0.230873
   44  C  6  Z   -0.070991  -0.015614   0.057499  -0.171283   0.012869
   45  H  7  S    0.130862   0.070496   0.106493  -0.054385  -0.244264
   46  H  8  S    0.120041  -0.228909   0.182070  -0.002875   0.134274
   47  H  9  S   -0.036528   0.244160   0.190615  -0.217308  -0.153283
   48  H 10  S   -0.285918  -0.282606  -0.108684   0.093650   0.030336
   49  H 11  S    0.023048   0.043443  -0.285404   0.066477  -0.090655
   50  H 12  S   -0.158449   0.136857   0.138719  -0.238957  -0.050950
   51  H 13  S    0.108252   0.024161  -0.031504   0.044960  -0.136490
   52  H 14  S   -0.157472   0.091696   0.078755  -0.100633   0.121469

                     36         37         38         39         40
                   -0.5898    -0.0310     0.0254     0.3081     0.3446
                     A          A          A          A          A   
    1  C  1  S    0.001807   0.012733   0.001606  -0.008615  -0.035872
    2  C  1  S   -0.009108  -0.060880  -0.010218   0.054492   0.209119
    3  C  1  X    0.145645  -0.067905   0.019390  -0.032432   0.620281
    4  C  1  Y   -0.046225  -0.030639   0.007509  -0.010129  -0.096101
    5  C  1  Z   -0.099090  -0.038262   0.052458   0.082641   0.238437
    6  C  2  S    0.013569   0.009700   0.017405  -0.023010  -0.018102
    7  C  2  S   -0.053954  -0.047558  -0.085467   0.133698   0.093727
    8  C  2  X   -0.188660  -0.028249  -0.029510   0.058652   0.280798
    9  C  2  Y   -0.008217  -0.133047   0.027102   0.139195  -0.177444
   10  C  2  Z    0.123159   0.016859   0.008968   0.032277   0.150327
   11  C  3  S   -0.002301  -0.014511  -0.001652  -0.020898  -0.061498
   12  C  3  S    0.006797   0.063099   0.004511   0.126187   0.343799
   13  C  3  X    0.186729   0.089925   0.039444   0.107931   0.606281
   14  C  3  Y    0.024067  -0.033070  -0.001221   0.216446  -0.133244
   15  C  3  Z   -0.115111   0.060770   0.049918   0.193452   0.238451
   16  C  4  S   -0.012167  -0.019970   0.047701  -0.145402   0.086209
   17  C  4  S    0.048615   0.110964  -0.222169   0.894787  -0.510506
   18  C  4  X   -0.115116   0.249169  -0.416569   0.405493   0.414236
   19  C  4  Y    0.064167  -0.057303  -0.022919   0.220900  -0.024441
   20  C  4  Z    0.004929  -0.451757   0.675579   0.203635   0.176660
   21  BR 5  S   -0.000915  -0.002640  -0.008738   0.000339   0.000289
   22  BR 5  S    0.003027   0.009005   0.030314  -0.001029  -0.001096
   23  BR 5  X    0.075230  -0.011694  -0.047599  -0.001768  -0.002413
   24  BR 5  Y   -0.006392   0.048631  -0.007663   0.009475  -0.002210
   25  BR 5  Z    0.040097   0.019088   0.054032  -0.004406  -0.005380
   26  BR 5  S   -0.013342  -0.038434  -0.125415   0.005557   0.003826
   27  BR 5  X   -0.227316   0.035365   0.144089   0.005366   0.007340
   28  BR 5  Y    0.019308  -0.147245   0.023244  -0.028751   0.006702
   29  BR 5  Z   -0.121242  -0.057748  -0.163558   0.013397   0.016325
   30  BR 5 XX    0.001305   0.008645   0.034350   0.001624   0.001573
   31  BR 5 YY    0.003791   0.009526   0.026405  -0.001139  -0.000170
   32  BR 5 ZZ    0.004529   0.011130   0.037307  -0.004098  -0.004898
   33  BR 5 XY    0.000209  -0.012757   0.003113  -0.006390   0.001256
   34  BR 5 XZ   -0.000121  -0.004177  -0.018762   0.000649   0.000140
   35  BR 5 YZ    0.000024   0.014237  -0.003020   0.006394  -0.001783
   36  BR 5  S    0.031093   0.108186   0.384648  -0.008336  -0.016062
   37  BR 5  X    0.779388  -0.135848  -0.567526  -0.023176  -0.030678
   38  BR 5  Y   -0.066262   0.560710  -0.092910   0.124039  -0.029183
   39  BR 5  Z    0.421899   0.218308   0.642099  -0.053243  -0.067877
   40  C  6  S   -0.007995   0.097367   0.062866   0.034097   0.053781
   41  C  6  S    0.029228  -0.499370  -0.296181  -0.190801  -0.308792
   42  C  6  X   -0.142257  -0.554781  -0.272673   0.091964   0.478966
   43  C  6  Y   -0.053765  -0.152555   0.022491   0.633600  -0.422415
   44  C  6  Z   -0.025929   0.425730   0.174937   0.368070   0.180905
   45  H  7  S    0.105552  -0.097908   0.183103   0.068397   0.051544
   46  H  8  S   -0.070672   0.064057  -0.097128  -0.068735  -0.105530
   47  H  9  S    0.145161  -0.000555  -0.019982  -0.120599  -0.168690
   48  H 10  S    0.080777   0.028042   0.078318   0.012985   0.370714
   49  H 11  S   -0.082983  -0.025191  -0.032492  -0.365679   0.113196
   50  H 12  S    0.115077   0.112263   0.070039   0.163635  -0.000496
   51  H 13  S   -0.064158  -0.020297  -0.037831  -0.737140  -0.078469
   52  H 14  S   -0.084431   0.257362   0.040078  -0.518469   0.042914

                     41         42         43         44         45
                    0.3828     0.3964     0.4498     0.4779     0.4868
                     A          A          A          A          A   
    1  C  1  S   -0.045432  -0.024708   0.030086  -0.143676   0.028084
    2  C  1  S    0.243317   0.134043  -0.188254   0.884394  -0.175526
    3  C  1  X    0.301623  -0.046425  -0.441615   0.136877   0.436217
    4  C  1  Y    0.591519   0.046898   0.202782  -0.245046  -0.142441
    5  C  1  Z   -0.028153   0.312566   0.382500   0.084539   0.572961
    6  C  2  S    0.024673   0.014683   0.013821  -0.077057  -0.012173
    7  C  2  S   -0.151486  -0.079154  -0.081523   0.489029   0.065926
    8  C  2  X    0.102115  -0.094154  -0.082378  -0.366181   0.163120
    9  C  2  Y    0.525428  -0.076981   0.304454   0.154497  -0.334696
   10  C  2  Z   -0.041723   0.469379   0.460919   0.050799  -0.006577
   11  C  3  S    0.049683   0.023704  -0.030007  -0.073870   0.053957
   12  C  3  S   -0.281684  -0.139470   0.173629   0.467245  -0.329460
   13  C  3  X    0.178613  -0.436541   0.089960  -0.063561  -0.419864
   14  C  3  Y    0.280500   0.074093   0.026244   0.442061  -0.239753
   15  C  3  Z   -0.081332   0.407268   0.086203  -0.285986  -0.491159
   16  C  4  S    0.062045   0.086023  -0.067034   0.057554   0.010785
   17  C  4  S   -0.375451  -0.539626   0.409129  -0.355536  -0.053100
   18  C  4  X    0.104192  -0.079643  -0.024671   0.199289   0.432762
   19  C  4  Y    0.699534   0.007550   0.062637   0.191163   0.293430
   20  C  4  Z   -0.069051  -0.244152  -0.064999   0.076907   0.091472
   21  BR 5  S   -0.000569   0.000391   0.001783  -0.000964   0.000304
   22  BR 5  S    0.001963  -0.001334  -0.006424   0.003244  -0.001073
   23  BR 5  X   -0.003131   0.000247   0.009442  -0.004076   0.001737
   24  BR 5  Y    0.002687  -0.001427   0.000922   0.000179   0.004161
   25  BR 5  Z    0.002356  -0.000080  -0.004808   0.000590  -0.000397
   26  BR 5  S   -0.008263   0.006240   0.025601  -0.015155   0.004518
   27  BR 5  X    0.009502  -0.000739  -0.028660   0.012389  -0.005279
   28  BR 5  Y   -0.008143   0.004339  -0.002809  -0.000539  -0.012633
   29  BR 5  Z   -0.007157   0.000232   0.014569  -0.001787   0.001207
   30  BR 5 XX    0.002198  -0.001737  -0.009107   0.004326  -0.001670
   31  BR 5 YY    0.002231  -0.001719  -0.005661   0.004035  -0.000942
   32  BR 5 ZZ    0.001937  -0.001465  -0.006654   0.003198  -0.001067
   33  BR 5 XY   -0.001383   0.001006  -0.000386   0.000711  -0.001358
   34  BR 5 XZ   -0.001953  -0.000535   0.004068  -0.000537   0.000753
   35  BR 5 YZ    0.002420  -0.001446   0.000838   0.000316   0.003125
   36  BR 5  S    0.025845  -0.015465  -0.090282   0.037235  -0.014600
   37  BR 5  X   -0.040836   0.004044   0.123780  -0.050335   0.023044
   38  BR 5  Y    0.036810  -0.018544   0.011376   0.001756   0.054554
   39  BR 5  Z    0.030173  -0.000442  -0.067021   0.007867  -0.006513
   40  C  6  S    0.045589  -0.100097   0.105473   0.008935  -0.031825
   41  C  6  S   -0.288488   0.610592  -0.669739  -0.058121   0.181216
   42  C  6  X   -0.098362  -0.055664   0.089611  -0.166089  -0.486276
   43  C  6  Y    0.348797  -0.051343  -0.021967  -0.102926   0.346634
   44  C  6  Z    0.013089   0.270557  -0.553865  -0.098533  -0.198975
   45  H  7  S   -0.084240   0.256287   0.552462  -0.351999   0.538602
   46  H  8  S    0.532070  -0.223092  -0.075286  -0.588883  -0.158410
   47  H  9  S    0.102529  -0.490617  -0.474220  -0.306473   0.015331
   48  H 10  S    0.194413   0.212029   0.224642  -0.486833   0.079626
   49  H 11  S   -0.052682  -0.294368  -0.121719  -0.523707   0.377347
   50  H 12  S    0.025298   0.576019  -0.016997  -0.450021  -0.281245
   51  H 13  S    0.566955   0.468622  -0.134044   0.138821  -0.089816
   52  H 14  S    0.024979  -0.500291   0.778260   0.175811   0.043357

                     46         47         48         49         50
                    0.5325     0.5593     0.5646     0.5886     0.5951
                     A          A          A          A          A   
    1  C  1  S   -0.136097   0.000410   0.110780   0.071290   0.026044
    2  C  1  S    0.854167  -0.000273  -0.683814  -0.456661  -0.156646
    3  C  1  X    0.033788   0.220224   0.364238   0.268104  -0.219365
    4  C  1  Y   -0.215606   0.091839  -0.103393  -0.319212  -0.636525
    5  C  1  Z   -0.260743  -0.347860  -0.266600  -0.052893  -0.324913
    6  C  2  S    0.027699   0.099997  -0.203483  -0.034675  -0.040464
    7  C  2  S   -0.172024  -0.613713   1.267531   0.208148   0.252873
    8  C  2  X    0.010588  -0.311884  -0.228527   0.616996   0.688196
    9  C  2  Y    0.113504  -0.689296  -0.236857  -0.284682   0.016585
   10  C  2  Z    0.099684   0.277355   0.150754  -0.362241   0.438381
   11  C  3  S    0.126023  -0.160007   0.066362   0.011579   0.009089
   12  C  3  S   -0.794100   0.998629  -0.410007  -0.074704  -0.057869
   13  C  3  X   -0.132386  -0.424546   0.165235  -0.300453   0.174436
   14  C  3  Y   -0.305786  -0.402385  -0.031692   0.734492   0.074539
   15  C  3  Z    0.356865   0.182621   0.134679   0.372651  -0.427253
   16  C  4  S   -0.011608  -0.025813  -0.021368  -0.004503  -0.037820
   17  C  4  S    0.087874   0.173077   0.134836   0.021555   0.254961
   18  C  4  X    0.252960  -0.090033  -0.175236  -0.048482  -0.448781
   19  C  4  Y    0.168215   0.424557   0.183457   0.021174   0.288584
   20  C  4  Z    0.215640   0.058298   0.012631   0.016490  -0.232491
   21  BR 5  S    0.000572  -0.000259  -0.000056   0.000698  -0.000858
   22  BR 5  S   -0.002078   0.000893   0.000239  -0.002625   0.003046
   23  BR 5  X    0.003227  -0.001492   0.000575   0.004270  -0.003034
   24  BR 5  Y   -0.003569  -0.000350  -0.000697  -0.002719   0.001960
   25  BR 5  Z   -0.001333  -0.000408   0.002396  -0.001230   0.002814
   26  BR 5  S    0.008185  -0.003982  -0.000484   0.009623  -0.012815
   27  BR 5  X   -0.009800   0.004537  -0.001758  -0.012962   0.009218
   28  BR 5  Y    0.010842   0.001060   0.002118   0.008252  -0.005944
   29  BR 5  Z    0.004038   0.001237  -0.007281   0.003719  -0.008545
   30  BR 5 XX   -0.002971   0.001506  -0.000601  -0.004468   0.003066
   31  BR 5 YY   -0.001747   0.000984   0.000090  -0.002115   0.002854
   32  BR 5 ZZ   -0.002234   0.000635   0.001077  -0.002040   0.004620
   33  BR 5 XY    0.002156  -0.000747  -0.000008   0.002042  -0.002064
   34  BR 5 XZ    0.001326  -0.000452  -0.000774   0.002208  -0.001283
   35  BR 5 YZ    0.000469   0.000427   0.000006  -0.001232   0.001171
   36  BR 5  S   -0.029962   0.011672   0.004996  -0.041352   0.040752
   37  BR 5  X    0.042740  -0.020454   0.006445   0.060155  -0.039259
   38  BR 5  Y   -0.044541  -0.002499  -0.008329  -0.037101   0.028106
   39  BR 5  Z   -0.019441  -0.003981   0.030389  -0.020022   0.038680
   40  C  6  S    0.021999   0.075137   0.029232   0.010850   0.022897
   41  C  6  S   -0.158627  -0.484820  -0.194036  -0.076014  -0.144422
   42  C  6  X   -0.188966   0.198881   0.018400  -0.135732   0.045132
   43  C  6  Y    0.155846   0.335527   0.134306  -0.116862   0.296200
   44  C  6  Z   -0.429137  -0.098473  -0.073090  -0.445312   0.169386
   45  H  7  S   -0.647043  -0.282982   0.027063   0.054203  -0.273134
   46  H  8  S   -0.395574   0.250695   0.456944   0.077272  -0.275937
   47  H  9  S   -0.024734   0.014602  -0.693998   0.314544  -0.326950
   48  H 10  S    0.136977   0.151405  -0.672797   0.183709   0.584123
   49  H 11  S    0.432735  -0.312283   0.230908  -0.697185   0.143823
   50  H 12  S    0.679677  -0.209705   0.285086   0.333571  -0.322701
   51  H 13  S   -0.169602   0.138694   0.092255   0.005742   0.332927
   52  H 14  S    0.347327   0.148745   0.096421   0.396247  -0.132967

                     51         52
                    0.6136   106.5665
                     A          A   
    1  C  1  S    0.003247  -0.000055
    2  C  1  S   -0.019253   0.001653
    3  C  1  X   -0.203686   0.000233
    4  C  1  Y   -0.429334  -0.000789
    5  C  1  Z    0.469716  -0.001279
    6  C  2  S    0.004493  -0.000034
    7  C  2  S   -0.029024   0.000243
    8  C  2  X   -0.186536   0.000057
    9  C  2  Y   -0.073252  -0.000047
   10  C  2  Z   -0.565714  -0.000303
   11  C  3  S   -0.014601  -0.000049
   12  C  3  S    0.081906   0.001812
   13  C  3  X    0.295387   0.000051
   14  C  3  Y   -0.226052   0.000603
   15  C  3  Z    0.345756  -0.001435
   16  C  4  S   -0.015694   0.002765
   17  C  4  S    0.098406  -0.016519
   18  C  4  X   -0.331581  -0.012129
   19  C  4  Y    0.581251  -0.002094
   20  C  4  Z   -0.319125   0.013835
   21  BR 5  S    0.000345  -0.515320
   22  BR 5  S   -0.001287   0.031845
   23  BR 5  X    0.000725  -0.000705
   24  BR 5  Y    0.002286   0.000030
   25  BR 5  Z   -0.000737   0.000753
   26  BR 5  S    0.005091  48.072146
   27  BR 5  X   -0.002192   0.002216
   28  BR 5  Y   -0.006936  -0.000092
   29  BR 5  Z    0.002223  -0.002364
   30  BR 5 XX   -0.001959 -21.515565
   31  BR 5 YY   -0.000921 -21.515692
   32  BR 5 ZZ   -0.001704 -21.515527
   33  BR 5 XY   -0.002478  -0.000011
   34  BR 5 XZ    0.000104  -0.000264
   35  BR 5 YZ    0.001523   0.000007
   36  BR 5  S   -0.018605   0.152192
   37  BR 5  X    0.010917  -0.011867
   38  BR 5  Y    0.033159   0.000494
   39  BR 5  Z   -0.010528   0.012697
   40  C  6  S    0.081048   0.002724
   41  C  6  S   -0.543304  -0.016169
   42  C  6  X    0.309141  -0.012359
   43  C  6  Y    0.294282   0.002988
   44  C  6  Z    0.117694   0.013990
   45  H  7  S    0.307213  -0.003386
   46  H  8  S   -0.525277  -0.000336
   47  H  9  S    0.431359  -0.000270
   48  H 10  S   -0.367381   0.000016
   49  H 11  S    0.112298  -0.000321
   50  H 12  S    0.210855  -0.004011
   51  H 13  S    0.505607  -0.000872
   52  H 14  S    0.005656  -0.001369
 ...... END OF RHF CALCULATION ......
 STEP CPU TIME =     0.16 TOTAL CPU TIME =          0.4 (      0.0 MIN)
 TOTAL WALL CLOCK TIME=          0.4 SECONDS, CPU UTILIZATION IS    89.74%

     ----------------------------------------------------------------
     PROPERTY VALUES FOR THE RHF   SELF-CONSISTENT FIELD WAVEFUNCTION
     ----------------------------------------------------------------

          -----------------
          ENERGY COMPONENTS
          -----------------

         WAVEFUNCTION NORMALIZATION =       1.0000000000

                ONE ELECTRON ENERGY =   -4662.1234188111
                TWO ELECTRON ENERGY =    1491.7016000803
           NUCLEAR REPULSION ENERGY =     433.0044247426
                                      ------------------
                       TOTAL ENERGY =   -2737.4173939881

 ELECTRON-ELECTRON POTENTIAL ENERGY =    1491.7016000803
  NUCLEUS-ELECTRON POTENTIAL ENERGY =   -7371.4223254959
   NUCLEUS-NUCLEUS POTENTIAL ENERGY =     433.0044247426
                                      ------------------
             TOTAL POTENTIAL ENERGY =   -5446.7163006729
               TOTAL KINETIC ENERGY =    2709.2989066848
                 VIRIAL RATIO (V/T) =       2.0103785106

          ---------------------------------------
          MULLIKEN AND LOWDIN POPULATION ANALYSES
          ---------------------------------------

     ATOMIC MULLIKEN POPULATION IN EACH MOLECULAR ORBITAL

                      1          2          3          4          5

                  2.000000   2.000000   2.000000   2.000000   2.000000

    1             0.000000  -0.000000  -0.000000  -0.000000  -0.000000
    2             0.000000  -0.000000  -0.000000  -0.000000  -0.000000
    3             0.000000  -0.000000  -0.000000  -0.000000  -0.000000
    4            -0.000000   0.000048   0.000001   0.000000   0.000000
    5             2.000000   1.999904   1.999998   1.999999   2.000000
    6            -0.000000   0.000048   0.000001   0.000000   0.000000
    7            -0.000000   0.000000   0.000000   0.000000   0.000000
    8            -0.000000   0.000000   0.000000   0.000000   0.000000
    9            -0.000000   0.000000   0.000000   0.000000  -0.000000
   10             0.000000  -0.000000   0.000000  -0.000000  -0.000000
   11            -0.000000   0.000000   0.000000   0.000000   0.000000
   12            -0.000000   0.000000   0.000000   0.000000   0.000000
   13            -0.000000   0.000000  -0.000000   0.000000   0.000000
   14            -0.000000   0.000000   0.000000  -0.000000  -0.000000

                      6          7          8          9         10

                  2.000000   2.000000   2.000000   2.000000   2.000000

    1            -0.000748   0.000001   2.002092   0.001314  -0.000816
    2            -0.000003  -0.000002  -0.000788  -0.000828   2.003423
    3            -0.000002  -0.000733   0.001298   2.002096  -0.000834
    4             2.002349  -0.000594  -0.000833  -0.000001  -0.000002
    5            -0.000249  -0.000229   0.000000   0.000000   0.000000
    6            -0.000507   2.002409   0.000002  -0.000810  -0.000001
    7            -0.000000   0.000000  -0.000891  -0.000001   0.000000
    8             0.000000  -0.000000  -0.000883  -0.000001   0.000001
    9            -0.000000  -0.000000   0.000001   0.000000  -0.000893
   10            -0.000000  -0.000000   0.000001   0.000002  -0.000878
   11            -0.000000   0.000001   0.000000  -0.000879   0.000001
   12             0.000000   0.000000  -0.000000  -0.000893  -0.000000
   13            -0.000836   0.000001   0.000001  -0.000000  -0.000000
   14            -0.000005  -0.000854  -0.000000   0.000000   0.000000

                     11         12         13         14         15

                  2.000000   2.000000   2.000000   2.000000   2.000000

    1             0.000000   0.000000   0.000000  -0.000000  -0.000002
    2             0.000000   0.000000   0.000000   0.000000  -0.000000
    3             0.000000   0.000000   0.000000  -0.000000  -0.000007
    4            -0.000323  -0.000449  -0.000173  -0.000020   0.000448
    5             2.000656   2.000990   2.000263   2.000054   1.998717
    6            -0.000325  -0.000539  -0.000086  -0.000025   0.000845
    7            -0.000002  -0.000001  -0.000002  -0.000002   0.000000
    8            -0.000000  -0.000000  -0.000000  -0.000000  -0.000000
    9            -0.000000  -0.000000  -0.000000   0.000000   0.000000
   10             0.000000   0.000000   0.000000  -0.000000  -0.000000
   11            -0.000000  -0.000000  -0.000000  -0.000000  -0.000000
   12            -0.000003  -0.000001  -0.000001  -0.000004  -0.000000
   13            -0.000003   0.000000  -0.000003  -0.000002  -0.000004
   14            -0.000001  -0.000001   0.000000   0.000000   0.000003

                     16         17         18         19         20

                  2.000000   2.000000   2.000000   2.000000   2.000000

    1            -0.000006  -0.000003  -0.000001  -0.000002   0.155809
    2            -0.000000  -0.000000  -0.000000   0.000000   0.088704
    3            -0.000003  -0.000005  -0.000000  -0.000000   0.154485
    4             0.000676   0.000067   0.000022   0.000135   0.586231
    5             1.999040   1.999846   1.999967   1.999805   0.349134
    6             0.000300   0.000095   0.000008   0.000063   0.568921
    7             0.000001   0.000001   0.000002   0.000000   0.009757
    8             0.000000   0.000000   0.000000  -0.000000   0.005321
    9             0.000000  -0.000000  -0.000000   0.000000   0.005246
   10            -0.000000  -0.000000  -0.000000  -0.000000   0.002554
   11             0.000000   0.000000   0.000000  -0.000000   0.005001
   12             0.000000   0.000002   0.000001   0.000001   0.010152
   13            -0.000008  -0.000001   0.000002  -0.000003   0.029781
   14             0.000000  -0.000003  -0.000000  -0.000000   0.028903

                     21         22         23         24         25

                  2.000000   2.000000   2.000000   2.000000   2.000000

    1             0.301135   0.488926   0.040342   0.212630   0.208273
    2             0.523678   0.080859   0.146448   0.493728   0.116921
    3             0.292913   0.450008   0.058584   0.320167   0.193270
    4             0.134487   0.321764   0.248736   0.159801   0.571464
    5             0.434354   0.018185   1.010678   0.020716   0.080051
    6             0.114405   0.302896   0.307139   0.220362   0.215049
    7             0.023671   0.065976   0.005065   0.055512   0.063102
    8             0.024528   0.070956   0.000320   0.012341   0.046148
    9             0.050572   0.000003   0.015609   0.161643   0.007406
   10             0.041465   0.000004   0.033101   0.123611   0.009106
   11             0.022132   0.062660   0.002655   0.048969   0.047349
   12             0.023836   0.056305   0.013964   0.112645   0.028329
   13             0.010122   0.046858   0.027683   0.000249   0.343070
   14             0.002703   0.034602   0.089677   0.057625   0.070462

                     26         27         28         29         30

                  2.000000   2.000000   2.000000   2.000000   2.000000

    1             0.262116   0.330332   0.490375   0.186769   0.164817
    2             0.033738   0.377365   0.186805   0.256495   0.072037
    3             0.179594   0.242213   0.184751   0.482324   0.442802
    4             0.334681   0.191915   0.039583   0.200467   0.248228
    5             0.101170   0.210435   0.242802   0.193799   0.092768
    6             0.501901   0.144336   0.293386   0.059819   0.527239
    7             0.022960   0.153316   0.115230   0.059772   0.073661
    8             0.134773   0.003294   0.236485   0.005133   0.043768
    9             0.000843   0.094797   0.038211   0.068492   0.026179
   10             0.003169   0.127453   0.004961   0.011905   0.035020
   11             0.091677   0.008100   0.001391   0.267795   0.079574
   12             0.000613   0.113698   0.040996   0.091953   0.089269
   13             0.099165   0.001931   0.004836   0.093836   0.095490
   14             0.233601   0.000817   0.120188   0.021442   0.009147

                     31         32         33         34         35

                  2.000000   2.000000   2.000000   2.000000   2.000000

    1             0.331839   0.206926   0.447497   0.048395   0.146329
    2             0.344262   0.377522   0.553728   0.224749   0.086785
    3             0.192419   0.095102   0.426045   0.201586   0.059551
    4             0.397127   0.080995   0.006170   0.082272   0.345720
    5             0.175602   0.353868   0.051311   0.995628   0.907595
    6             0.086834   0.330947   0.030781   0.135530   0.131330
    7             0.044872   0.010412   0.028406   0.007150   0.133709
    8             0.039722   0.129090   0.082334   0.000060   0.039791
    9             0.004309   0.142098   0.088443   0.113909   0.054997
   10             0.229515   0.202992   0.028692   0.020266   0.001739
   11             0.000889   0.005405   0.198433   0.009843   0.019749
   12             0.067148   0.045574   0.043141   0.132885   0.006320
   13             0.027249   0.001358   0.001844   0.004412   0.036849
   14             0.058213   0.017711   0.013177   0.023314   0.029536

                     36

                  2.000000

    1             0.076929
    2             0.123035
    3             0.114747
    4             0.036548
    5             1.432744
    6             0.050479
    7             0.024013
    8             0.010807
    9             0.048356
   10             0.016346
   11             0.015211
   12             0.028290
   13             0.008254
   14             0.014240

               ----- POPULATIONS IN EACH AO -----
                             MULLIKEN      LOWDIN
              1  C  1  S      1.99210     1.98516
              2  C  1  S      1.18644     1.03581
              3  C  1  X      0.87065     0.92472
              4  C  1  Y      1.02100     1.04606
              5  C  1  Z      1.03108     1.04743
              6  C  2  S      1.99208     1.98517
              7  C  2  S      1.18131     1.02983
              8  C  2  X      0.98841     1.01534
              9  C  2  Y      0.89194     0.94321
             10  C  2  Z      1.03492     1.05186
             11  C  3  S      1.99211     1.98516
             12  C  3  S      1.18637     1.03602
             13  C  3  X      0.86406     0.91857
             14  C  3  Y      1.03188     1.05287
             15  C  3  Z      1.01796     1.03890
             16  C  4  S      1.99332     1.98690
             17  C  4  S      1.27370     1.13640
             18  C  4  X      0.93164     0.94837
             19  C  4  Y      1.01371     1.04421
             20  C  4  Z      0.77516     0.80061
             21  BR 5  S      2.00078     1.99917
             22  BR 5  S      1.99666     1.99260
             23  BR 5  X      1.99990     1.99941
             24  BR 5  Y      1.99990     1.99938
             25  BR 5  Z      1.99987     1.99921
             26  BR 5  S      1.96883     0.79702
             27  BR 5  X      1.99425     1.98975
             28  BR 5  Y      1.99426     1.98910
             29  BR 5  Z      1.99240     1.98632
             30  BR 5 XX      1.34433     1.73687
             31  BR 5 YY      1.34436     1.73675
             32  BR 5 ZZ      1.34425     1.73690
             33  BR 5 XY      1.99968     1.99969
             34  BR 5 XZ      1.99946     1.99948
             35  BR 5 YZ      1.99962     1.99963
             36  BR 5  S      1.95253     1.91540
[...]
  6   C            X -0.05782774  0.06824328  0.06120994  0.06683997  0.02409627
                   Y  0.00934895 -0.06151400 -0.13108790 -0.01400273 -0.02469734
                   Z -0.01220790  0.02136606  0.00226204  0.01762154 -0.00121882
  7   H            X  0.15231854  0.27878266  0.10912256 -0.23264273 -0.03865533
                   Y -0.05710463 -0.05382963 -0.07144123  0.05817304  0.10866819
                   Z  0.04642171  0.06496071  0.02343760 -0.06330503 -0.06170468
  8   H            X -0.11215855  0.14419409  0.20173312 -0.32980501  0.10200854
                   Y  0.13601631  0.01768003 -0.05237679  0.13480366  0.00062959
                   Z -0.05259502  0.01452242  0.07021854 -0.08359729  0.02587989
  9   H            X -0.00508446  0.00013769  0.08673777 -0.00228262 -0.00339126
                   Y  0.60451905 -0.00818409  0.00180067  0.26165719  0.38204767
                   Z -0.01432027  0.00024992  0.05772381 -0.00631475 -0.00923005
 10   H            X  0.00313607  0.00277702 -0.01528718  0.00149451 -0.00533753
                   Y -0.43223108 -0.31464039  0.00046557 -0.17452232  0.60117471
                   Z  0.01012317  0.00761114  0.01001071  0.00422176 -0.01454918
 11   H            X  0.11261061 -0.14415444  0.19998505  0.32742685 -0.10184291
                   Y  0.14181444  0.01450033  0.05895950  0.14462282 -0.00241763
                   Z  0.04656984 -0.01523363  0.06735643  0.07697898 -0.02581653
 12   H            X -0.15372301 -0.27769377  0.10746208  0.23129145  0.03691363
                   Y -0.06312467 -0.06186705  0.07430672  0.06533960  0.11225549
                   Z -0.04436077 -0.06219768  0.01981668  0.06023331  0.05640899
 13   H            X -0.04405718  0.22031202 -0.13863393  0.02949505  0.08497067
                   Y -0.16153812  0.38585763 -0.12334447  0.15835424  0.12029058
                   Z -0.00933180  0.03231695 -0.00358496  0.00742928 -0.00339388
 14   H            X  0.04743004 -0.22713075 -0.14063070 -0.03300001 -0.08698592
                   Y -0.16027098  0.37988741  0.11991583  0.15781107  0.11868927
                   Z  0.01661145 -0.05083041 -0.00938170 -0.01510001 -0.00236481

 TRANS. SAYVETZ    X  0.00000003 -0.00000008 -0.00000267  0.00000007 -0.00000004
                   Y  0.00000082  0.00000156  0.00000038  0.00000104 -0.00000105
                   Z -0.00000006 -0.00000014  0.00000264  0.00000026  0.00000001
               TOTAL  0.00000083  0.00000157  0.00000377  0.00000107  0.00000105

   ROT. SAYVETZ    X -0.00362080 -0.00204509  0.00001122 -0.00087447  0.00162530
                   Y  0.00005179  0.00000729  0.00043418  0.00003715 -0.00009617
                   Z -0.00198598  0.00175992 -0.00013544 -0.00263607 -0.00184773
               TOTAL  0.00413001  0.00269810  0.00045495  0.00277758  0.00246272

                           31          32          33          34          35
       FREQUENCY:      1631.38     1756.08     1758.86     1803.15     3609.34  
        SYMMETRY:         A           A           A           A           A   
    REDUCED MASS:      1.82193     1.10125     1.08695     1.10654     1.06762
    IR INTENSITY:      0.56880     0.26487     0.01731     0.10187     0.47969

  1   C            X -0.07670492 -0.01806510  0.01414617  0.00054825 -0.01357645
                   Y  0.04746539 -0.05720835  0.05067293 -0.01658613 -0.03562496
                   Z -0.02845496  0.01656520 -0.01533599  0.00420526  0.01907850
  2   C            X  0.03494528 -0.00004873 -0.00503733 -0.07440471 -0.00050801
                   Y  0.00062837  0.01286773  0.00003352 -0.00174012  0.00317680
                   Z  0.01061822 -0.00023170 -0.00537250 -0.04441485 -0.00001782
  3   C            X -0.07602209  0.01858856  0.01566973  0.00024612  0.01911430
                   Y -0.05023230 -0.05590528 -0.05295272  0.01679971 -0.04847830
                   Z -0.02612340 -0.01334970 -0.01330904  0.00340246 -0.02321942
  4   C            X -0.01245027  0.00096716  0.00292458  0.00113748 -0.00138911
                   Y -0.10185375 -0.00139604  0.01241722  0.00266797  0.00135350
                   Z  0.01235337  0.00354651 -0.00219426 -0.00039032 -0.00015735
  5   BR           X  0.00071364  0.00000249 -0.00020752 -0.00010784 -0.00001506
                   Y -0.00003027  0.00009813  0.00001083  0.00000017  0.00011411
                   Z -0.00153649 -0.00000991  0.00045685  0.00004846  0.00000818
  6   C            X -0.01420094 -0.00104427  0.00311511  0.00118402  0.00196453
                   Y  0.10210428 -0.00117031 -0.01250146 -0.00266184  0.00223095
                   Z  0.00745612 -0.00341631 -0.00170351 -0.00026163  0.00048835
  7   H            X  0.32219502  0.17238623 -0.16713208  0.00778485  0.01863473
                   Y -0.06938424  0.23811769 -0.23090452  0.04382617  0.26731891
                   Z  0.08812434 -0.38605584  0.36764102 -0.07670207  0.20877282
  8   H            X  0.28353824  0.08580151 -0.08055462 -0.00044794  0.13979618
                   Y -0.06461646  0.42536025 -0.40906330  0.07548417  0.13062190
                   Z  0.05235080  0.19921847 -0.18817601  0.02975264 -0.42681720
  9   H            X  0.06333357 -0.00041994  0.04794273  0.20660830  0.00590464
                   Y  0.00221507 -0.03665833  0.00263142  0.01696009 -0.00168809
                   Z  0.06664100 -0.00088084  0.11553297  0.62420903 -0.00221417
 10   H            X  0.05963039 -0.00183230  0.12984115  0.65083365  0.00068622
                   Y  0.00056983 -0.01823527  0.00042888  0.00337216  0.00611215
                   Z  0.01268152  0.00071407 -0.01786576 -0.10071306  0.00358032
 11   H            X  0.28304196 -0.09029354 -0.09068780  0.00089291 -0.19027424
                   Y  0.07235726  0.40032409  0.41126277 -0.07411437  0.19887598
                   Z  0.04923842 -0.21267596 -0.21485365  0.03346328  0.56178837
 12   H            X  0.32134394 -0.17112577 -0.17712925  0.00866957 -0.03126233
                   Y  0.07937166  0.24528805  0.25362583 -0.04745434  0.34112638
                   Z  0.08464698  0.36222485  0.36809948 -0.07463442 -0.29493214
 13   H            X  0.16423916 -0.00958621 -0.00665190 -0.00846519  0.01527995
                   Y  0.12798359 -0.01888777 -0.00018291 -0.00781046 -0.01102891
                   Z  0.02405040  0.00316550 -0.00731691  0.00361369  0.00908717
 14   H            X  0.16653407  0.01014031 -0.00632573 -0.00860807 -0.02432644
                   Y -0.12364570 -0.01882516 -0.00089706  0.00782685 -0.01937616
                   Z  0.03013927 -0.00201259 -0.00738431  0.00323563 -0.01432907

 TRANS. SAYVETZ    X -0.00000026 -0.00000005  0.00000049 -0.00000040  0.00000002
                   Y  0.00000028  0.00000003  0.00000002  0.00000008 -0.00000022
                   Z -0.00000105 -0.00000006 -0.00000031  0.00000042  0.00000011
               TOTAL  0.00000112  0.00000008  0.00000059  0.00000059  0.00000025

   ROT. SAYVETZ    X  0.00004964  0.00022456 -0.00001646  0.00000007  0.00052425
                   Y -0.00056554 -0.00000251  0.00005741  0.00017247  0.00003359
                   Z -0.00018662  0.00040159 -0.00000187  0.00000353  0.00014941
               TOTAL  0.00059760  0.00046012  0.00005976  0.00017251  0.00054616

                           36          37          38          39          40
       FREQUENCY:      3610.84     3639.59     3670.78     3684.20     3724.86  
        SYMMETRY:         A           A           A           A           A   
    REDUCED MASS:      1.06836     1.06935     1.09666     1.10151     1.11012
    IR INTENSITY:      0.39246     0.13366     1.36647     1.86978     0.09861

  1   C            X  0.01853172  0.00087067  0.00275960  0.00328679  0.00545718
                   Y  0.04764828 -0.00243118  0.00077889  0.00195163 -0.02320747
                   Z -0.02568989  0.00418844 -0.00158780 -0.00425337 -0.04881867
  2   C            X -0.00348099 -0.05729533 -0.00000572  0.00199357  0.00072800
                   Y -0.00048088 -0.00156281  0.00000025  0.00009901  0.00084994
                   Z  0.00032766 -0.04349081 -0.00000705  0.00338991 -0.00042969
  3   C            X  0.01459271  0.00083564 -0.00278444  0.00330894 -0.00672601
                   Y -0.03629877  0.00261262  0.00080154 -0.00206283 -0.02870035
                   Z -0.01751650  0.00406108  0.00156868 -0.00417490  0.06749132
  4   C            X  0.00243966 -0.00149990 -0.04315759 -0.04206445  0.00099743
                   Y -0.00313321  0.00111261  0.02989800  0.03486005  0.00027992
                   Z  0.00161066 -0.00102150 -0.03002666 -0.02930100  0.00039836
  5   BR           X -0.00009709  0.00002829  0.00000246 -0.00009281  0.00000908
                   Y -0.00001543  0.00000047 -0.00025143  0.00000967 -0.00005100
                   Z  0.00007562  0.00000742  0.00000505  0.00045758 -0.00000069
  6   C            X  0.00189254 -0.00147946  0.04277258 -0.04124040 -0.00200936
                   Y  0.00272241 -0.00118680  0.03222927 -0.03684212 -0.00026610
                   Z  0.00136745 -0.00096733  0.02865537 -0.02745698 -0.00090238
  7   H            X -0.02560912 -0.00145885 -0.00089459  0.00096950  0.02567979
                   Y -0.35110890  0.00029455 -0.00275773  0.00257298  0.36128583
                   Z -0.27542727  0.00126092 -0.00236250  0.00190770  0.27731741
  8   H            X -0.18688664  0.01492039 -0.01083822 -0.01933437 -0.09656581
                   Y -0.17508613  0.00864687 -0.00951765 -0.01792824 -0.09304918
                   Z  0.57194314 -0.03572928  0.02832048  0.05547905  0.29811440
  9   H            X  0.04244653  0.57120164  0.00004082 -0.00642301 -0.00744902
                   Y  0.00022588 -0.00088088 -0.00102053  0.00002969  0.00156813
                   Z -0.01633479 -0.24680936  0.00000941  0.00369338  0.00309549
 10   H            X  0.00526946  0.05450863  0.00000842 -0.00276463 -0.00054351
                   Y -0.00015146  0.01818956 -0.00021941 -0.00098448 -0.00374731
                   Z  0.02759310  0.73115544  0.00009526 -0.03962914  0.00007221
 11   H            X -0.14241274  0.01499473  0.01108020 -0.01964058  0.13226387
                   Y  0.14924269 -0.01000323 -0.01074543  0.02021415 -0.14222189
                   Z  0.42145586 -0.03498613 -0.02798245  0.05444554 -0.39461976
 12   H            X -0.02383707 -0.00147911  0.00092573  0.00105125 -0.04355675
                   Y  0.25074245  0.00002119 -0.00249330 -0.00282605  0.47068555
                   Z -0.21775112  0.00103398  0.00238197  0.00234389 -0.39995066
 13   H            X -0.03610268  0.02136363  0.47701805  0.47570429 -0.00727713
                   Y  0.02756269 -0.01445065 -0.34350378 -0.34439203  0.00536208
                   Z -0.02351966  0.01375059  0.32217763  0.32004387 -0.00368355
 14   H            X -0.02980726  0.02109667 -0.47258504  0.46733031  0.01522586
                   Y -0.02473867  0.01547655 -0.36861237  0.36630241  0.01188276
                   Z -0.01878977  0.01303512 -0.30639647  0.30168235  0.00849385

 TRANS. SAYVETZ    X  0.00000011 -0.00000070 -0.00000014 -0.00000007  0.00000001
                   Y -0.00000004 -0.00000006  0.00000083 -0.00000009 -0.00000027
                   Z  0.00000084 -0.00000013 -0.00000021 -0.00000048  0.00000005
               TOTAL  0.00000085  0.00000071  0.00000087  0.00000050  0.00000027

   ROT. SAYVETZ    X -0.00006926 -0.00000336  0.00002404 -0.00000856 -0.00000203
                   Y  0.00014678  0.00029980 -0.00000983  0.00007370  0.00000281
                   Z -0.00002421 -0.00000798  0.00001433 -0.00000145  0.00002103
               TOTAL  0.00016409  0.00029992  0.00002966  0.00007421  0.00002132

                           41          42
       FREQUENCY:      3726.36     3753.08  
        SYMMETRY:         A           A   
    REDUCED MASS:      1.11130     1.11228
    IR INTENSITY:      0.52550     0.18873

  1   C            X  0.00692522 -0.00029950
                   Y -0.03270326  0.00036189
                   Z -0.06573857  0.00260001
  2   C            X -0.00497978 -0.05311741
                   Y  0.00015545  0.00135423
                   Z  0.00293257  0.07551431
  3   C            X  0.00460374 -0.00028900
                   Y  0.02211497 -0.00022421
                   Z -0.04956065  0.00256833
  4   C            X  0.00351978  0.00099707
                   Y -0.00147205 -0.00079577
                   Z  0.00174861  0.00069173
  5   BR           X -0.00005740  0.00000467
                   Y -0.00000790 -0.00000041
                   Z  0.00001379 -0.00001971
  6   C            X  0.00304265  0.00098250
                   Y  0.00161804  0.00084518
                   Z  0.00148058  0.00065212
  7   H            X  0.03570776  0.00004515
                   Y  0.49192988 -0.01552190
                   Z  0.37865380 -0.01162125
  8   H            X -0.12744108  0.00726763
                   Y -0.12325461  0.01161850
                   Z  0.39459327 -0.02737892
  9   H            X  0.05068158  0.66194706
                   Y  0.00016929 -0.00090044
                   Z -0.02135962 -0.28105237
 10   H            X  0.00367743 -0.04622215
                   Y -0.00057707 -0.01510071
                   Z -0.00189430 -0.60675504
 11   H            X -0.09508894  0.00739093
                   Y  0.10261614 -0.01269584
                   Z  0.28452732 -0.02649038
 12   H            X  0.03285169 -0.00019709
                   Y -0.34903608  0.01464482
                   Z  0.29740013 -0.01211156
 13   H            X -0.02785034 -0.00740743
                   Y  0.01990497  0.00611439
                   Z -0.01813247 -0.00501331
 14   H            X -0.02416148 -0.00729315
                   Y -0.01864992 -0.00647886
                   Z -0.01538754 -0.00470926

 TRANS. SAYVETZ    X -0.00000005 -0.00000011
                   Y  0.00000005 -0.00000000
                   Z -0.00000041 -0.00000001
               TOTAL  0.00000042  0.00000011

   ROT. SAYVETZ    X  0.00000435  0.00000005
                   Y -0.00003093 -0.00005213
                   Z  0.00000396  0.00000060
               TOTAL  0.00003149  0.00005213

 REFERENCE ON SAYVETZ CONDITIONS - A. SAYVETZ, J.CHEM.PHYS., 7, 383-389(1939).

 NOTE - THE MODES J,K ARE ORTHONORMALIZED ACCORDING TO
 SUM ON I   M(I) * (X(I,J)*X(I,K) + Y(I,J)*Y(I,K) + Z(I,J)*Z(I,K)) = DELTA(J,K)

  MODE FREQ(CM**-1)  SYMMETRY  RED. MASS  IR INTENS.
     1       0.035    A       10.507006    0.000000
     2       0.175    A       10.626234    0.000003
     3       0.184    A       10.496525    0.000000
     4       7.529    A        4.969242    0.012438
     5       8.288    A        5.360583    0.043222
     6      12.516    A        3.143158    0.063735
     7     190.061    A        2.441651    0.022277
     8     278.977    A        2.544133    0.216268
     9     295.814    A        2.526578    0.095848
    10     526.329    A        3.996478    1.192761
    11     572.713    A        4.918274    1.264176
    12     738.058    A        2.162461    0.187483
    13     830.395    A        5.213536    0.165125
    14     942.651    A        1.683951    0.221740
    15     989.247    A        1.636911    0.272268
    16    1028.987    A        3.169611    0.018716
    17    1044.883    A        1.596313    0.310039
    18    1078.832    A        1.703297    0.067651
    19    1142.681    A        1.271438    0.054607
    20    1195.963    A        1.193402    0.177634
    21    1208.005    A        1.346752    0.152323
    22    1236.452    A        1.343077    0.011231
    23    1307.181    A        1.497400    0.256991
    24    1350.933    A        1.143691    0.267557
    25    1446.699    A        1.214291    0.150056
    26    1451.805    A        1.320173    0.015325
    27    1495.376    A        1.365897    0.025970
    28    1557.626    A        3.612561    0.140924
    29    1576.543    A        1.724428    0.131419
    30    1627.739    A        1.563081    0.000232
    31    1631.376    A        1.821928    0.568803
    32    1756.083    A        1.101253    0.264871
    33    1758.856    A        1.086946    0.017313
    34    1803.151    A        1.106542    0.101870
    35    3609.339    A        1.067622    0.479693
    36    3610.839    A        1.068362    0.392456
    37    3639.592    A        1.069347    0.133665
    38    3670.781    A        1.096662    1.366467
    39    3684.198    A        1.101511    1.869780
    40    3724.858    A        1.110123    0.098610
    41    3726.361    A        1.111299    0.525495
    42    3753.081    A        1.112283    0.188728

     -------------------------------
     THERMOCHEMISTRY AT T=  298.15 K
     -------------------------------

 USING IDEAL GAS, RIGID ROTOR, HARMONIC NORMAL MODE APPROXIMATIONS.
 P=  1.01325E+05 PASCAL.
 ALL FREQUENCIES ARE SCALED BY   1.00000
 THE MOMENTS OF INERTIA ARE (IN AMU*BOHR**2)
            389.62402          1001.09704          1093.66745
 THE ROTATIONAL SYMMETRY NUMBER IS  1.0
 THE ROTATIONAL CONSTANTS ARE (IN GHZ)
      4.62776     1.80111     1.64866
      7 -     42 VIBRATIONAL MODES ARE USED IN THERMOCHEMISTRY.
 THE HARMONIC ZERO POINT ENERGY IS (SCALED BY   1.000)
        0.140067 HARTREE/MOLECULE    30741.234065 CM**-1/MOLECULE 
       87.893687 KCAL/MOL              367.747186 KJ/MOL

               Q               LN Q
 ELEC.     1.00000E+00       0.000000
 TRANS.    7.00398E+07      18.064575
 ROT.      2.33800E+05      12.362222
 VIB.      3.81675E+00       1.339400
 TOT.      6.25006E+13      31.766197

              E         H         G         CV        CP        S
           KJ/MOL    KJ/MOL    KJ/MOL   J/MOL-K   J/MOL-K   J/MOL-K
 ELEC.      0.000     0.000     0.000     0.000     0.000     0.000
 TRANS.     3.718     6.197   -44.781    12.472    20.786   170.982
 ROT.       3.718     3.718   -30.645    12.472    12.472   115.256
 VIB.     373.779   373.779   364.427    51.694    51.694    31.366
 TOTAL    381.216   383.694   289.001    76.637    84.952   317.605
 VIB. THERMAL CORRECTION E(T)-E(0) = H(T)-H(0) =      6031.532 J/MOL

              E         H         G         CV        CP        S
         KCAL/MOL  KCAL/MOL  KCAL/MOL CAL/MOL-K CAL/MOL-K CAL/MOL-K
 ELEC.      0.000     0.000     0.000     0.000     0.000     0.000
 TRANS.     0.889     1.481   -10.703     2.981     4.968    40.866
 ROT.       0.889     0.889    -7.324     2.981     2.981    27.547
 VIB.      89.335    89.335    87.100    12.355    12.355     7.497
 TOTAL     91.113    91.705    69.073    18.317    20.304    75.909
 VIB. THERMAL CORRECTION E(T)-E(0) = H(T)-H(0) =      1441.571 CAL/MOL
 ......END OF NORMAL COORDINATE ANALYSIS......
 STEP CPU TIME =     0.00 TOTAL CPU TIME =         77.7 (      1.3 MIN)
 TOTAL WALL CLOCK TIME=         79.1 SECONDS, CPU UTILIZATION IS    98.13%
               997247  WORDS OF DYNAMIC MEMORY USED
 EXECUTION OF GAMESS TERMINATED NORMALLY Sat Nov 13 22:16:04 2021
 DDI: 263640 bytes (0.3 MB / 0 MWords) used by master data server.

 ----------------------------------------
 CPU timing information for all processes
 ========================================
 0: 76.246 + 1.423 = 77.670
 ----------------------------------------
 ddikick.x: exited gracefully.
----- accounting info -----
Files used on the master node chemcompute-node-0.novalocal were:
-rw-r--r--. 1 chemcomp chemcomp      986 Nov 13 22:14 /scratch/306218/342120.F05
-rw-rw-r--. 1 chemcomp chemcomp  9540848 Nov 13 22:15 /scratch/306218/342120.F08
-rw-rw-r--. 1 chemcomp chemcomp 70451200 Nov 13 22:16 /scratch/306218/342120.F10
-rw-rw-r--. 1 chemcomp chemcomp   463344 Nov 13 22:16 /scratch/306218/342120.F18
Sat Nov 13 22:16:07 UTC 2021
0.139u 0.087s 1:22.70 0.2%	0+0k 8+216io 0pf+0w
Finishing Up...
Looking for IR data...
Looking for Raman data...
vibramans not found
Looking for thermodynamics data...
Looking for UV-Vis data...
306218
