----- GAMESS execution script 'rungms' -----
This job is running on host chemcompute-node-0.novalocal
under operating system Linux at Sat Nov 13 22:22:09 UTC 2021
SLURM has assigned the following compute nodes to this run:
chemcompute-node-0
Available scratch disk space (Kbyte units) at beginning of the job is
Filesystem     1K-blocks     Used Available Use% Mounted on
/dev/sda1       62903276 17097408  45805868  28% /
GAMESS temporary binary files will be written to /scratch/306220
GAMESS supplementary output files will be written to /data/slurm/342122
Copying input file 342122.inp to your run's scratch directory...
The generated host list is
chemcompute-node-0.novalocal

 Distributed Data Interface kickoff program.
 Initiating 1 compute processes on 1 nodes to run the following command:
 /data/gamess-2019R1-ddi/gamess.00.x 342122 

          ******************************************************
          *         GAMESS VERSION = 30 JUN 2019 (R1)          *
          *             FROM IOWA STATE UNIVERSITY             *
          * M.W.SCHMIDT, K.K.BALDRIDGE, J.A.BOATZ, S.T.ELBERT, *
          *   M.S.GORDON, J.H.JENSEN, S.KOSEKI, N.MATSUNAGA,   *
          *          K.A.NGUYEN, S.J.SU, T.L.WINDUS,           *
          *       TOGETHER WITH M.DUPUIS, J.A.MONTGOMERY       *
          *         J.COMPUT.CHEM.  14, 1347-1363(1993)        *
          **************** 64 BIT LINUX VERSION ****************

  SINCE 1993, STUDENTS AND POSTDOCS WORKING AT IOWA STATE UNIVERSITY
  AND ALSO IN THEIR VARIOUS JOBS AFTER LEAVING ISU HAVE MADE IMPORTANT
  CONTRIBUTIONS TO THE CODE:
     IVANA ADAMOVIC, CHRISTINE AIKENS, YURI ALEXEEV, POOJA ARORA,
     ANDREY ASADCHEV, ROB BELL, PRADIPTA BANDYOPADHYAY, JONATHAN BENTZ,
     COLLEEN BERTONI, BRETT BODE, KURT BRORSEN, CALEB CARLIN, GALINA CHABAN,
     WEI CHEN, CHEOL HO CHOI, PAUL DAY, ALBERT DEFUSCO, NUWAN DESILVA,
     TIM DUDLEY, DMITRI FEDOROV, ALEX FINDLATER, GRAHAM FLETCHER, 
     MARK FREITAG, KURT GLAESEMANN, ANASTASIA GUNINA,
     DAN KEMP, GRANT MERRILL, NORIYUKI MINEZAWA, JONATHAN MULLIN,
     TAKESHI NAGATA, SEAN NEDD, HEATHER NETZLOFF, BOSILJKA NJEGIC, RYAN OLSON,
     MIKE PAK, BUU PHAM,
     SPENCER PRUITT, LUKE ROSKOP, JIM SHOEMAKER, LYUDMILA SLIPCHENKO,
     TONY SMITH, SAROM SOK LEANG, JIE SONG, TETSUYA TAKETSUGU, SIMON WEBB,
     PENG XU, SOOHAENG YOO, FEDERICO ZAHARIEV

  ADDITIONAL CODE HAS BEEN PROVIDED BY COLLABORATORS IN OTHER GROUPS:
     IOWA STATE UNIVERSITY:
          JOE IVANIC, AARON WEST, LAIMUTIS BYTAUTAS, KLAUS RUEDENBERG
     UNIVERSITY OF TOKYO: KIMIHIKO HIRAO, TAKAHITO NAKAJIMA,
          TAKAO TSUNEDA, MUNEAKI KAMIYA, SUSUMU YANAGISAWA,
          KIYOSHI YAGI, MAHITO CHIBA, SEIKEN TOKURA, NAOAKI KAWAKAMI
     UNIVERSITY OF AARHUS: FRANK JENSEN
     UNIVERSITY OF IOWA: VISVALDAS KAIRYS, HUI LI
     NATIONAL INST. OF STANDARDS AND TECHNOLOGY: WALT STEVENS, DAVID GARMER
     UNIVERSITY OF PISA: BENEDETTA MENNUCCI, JACOPO TOMASI
     UNIVERSITY OF MEMPHIS: HENRY KURTZ, PRAKASHAN KORAMBATH
     UNIVERSITY OF ALBERTA: TOBY ZENG, MARIUSZ KLOBUKOWSKI
     UNIVERSITY OF NEW ENGLAND: MARK SPACKMAN
     MIE UNIVERSITY: HIROAKI UMEDA
     NAT. INST. OF ADVANCED INDUSTRIAL SCIENCE AND TECHNOLOGY: KAZUO KITAURA
     MICHIGAN STATE UNIVERSITY:
          KAROL KOWALSKI, MARTA WLOCH, JEFFREY GOUR, JESSE LUTZ,
          WEI LI, JUN SHEN, J. EMILIANO DEUSTUA, PIOTR PIECUCH
     UNIVERSITY OF MINNESOTA:
          YINAN SHU
     UNIVERSITY OF SILESIA: MONIKA MUSIAL, STANISLAW KUCHARSKI
     FACULTES UNIVERSITAIRES NOTRE-DAME DE LA PAIX:
          OLIVIER QUINET, BENOIT CHAMPAGNE
     UNIVERSITY OF CALIFORNIA - SANTA BARBARA: BERNARD KIRTMAN
     INSTITUTE FOR MOLECULAR SCIENCE:
          KAZUYA ISHIMURA, MICHIO KATOUDA, AND SHIGERU NAGASE
     UNIVERSITY OF NOTRE DAME: ANNA POMOGAEVA, DAN CHIPMAN
     KYUSHU UNIVERSITY:
          HARUYUKI NAKANO,
          FENG LONG GU, JACEK KORCHOWIEC, MARCIN MAKOWSKI, AND YURIKO AOKI,
          HIROTOSHI MORI AND EISAKU MIYOSHI
     PENNSYLVANIA STATE UNIVERSITY:
          TZVETELIN IORDANOV, CHET SWALINA, JONATHAN SKONE,
          SHARON HAMMES-SCHIFFER
     WASEDA UNIVERSITY:
          MASATO KOBAYASHI, TOMOKO AKAMA, TSUGUKI TOUMA,
          TAKESHI YOSHIKAWA, YASUHIRO IKABATA, JUNJI SEINO,
          YUYA NAKAJIMA, HIROMI NAKAI
     NANJING UNIVERSITY: SHUHUA LI
     UNIVERSITY OF NEBRASKA:
          PEIFENG SU, DEJUN SI, NANDUN THELLAMUREGE, YALI WANG, HUI LI
     UNIVERSITY OF ZURICH: ROBERTO PEVERATI, KIM BALDRIDGE
     N. COPERNICUS UNIVERSITY AND JACKSON STATE UNIVERSITY:
          MARIA BARYSZ
     UNIVERSITY OF COPENHAGEN: Jimmy Kromann, CASPER STEINMANN
     TOKYO INSTITUTE OF TECHNOLOGY: HIROYA NAKATA
     NAGOYA UNIVERSITY: YOSHIO NISHIMOTO, STEPHAN IRLE
     MOSCOW STATE UNIVERSITY: VLADIMIR MIRONOV
     A.N.NESMEYANOV INSTITUTE OF ORGANOELEMENT COMPOUNDS OF RUSSIAN ACADEMY OF SCIENCES:
          IGOR S. GERASIMOV

 EXECUTION OF GAMESS BEGUN Sat Nov 13 22:22:09 2021

            ECHO OF THE FIRST FEW INPUT CARDS -
 INPUT CARD> $BASIS GBASIS=STO NGAUSS=3 $END                                                
 INPUT CARD> $CONTRL SCFTYP=RHF RUNTYP=SADPOINT ICHARG=1 MULT=1 $END                        
 INPUT CARD> $STATPT hssend=.t. OPTTOL=0.0005 NSTEP=50 $END                                 
 INPUT CARD> $STATPT HESS=calc ihrep=5 $END                                                 
 INPUT CARD> $FORCE nvib=2 $END                                                             
 INPUT CARD> $ZMAT DLC=.t. auto=.t. nonvdw(1)=6,5,4,5 $END                                  
 INPUT CARD>!$ZMAT IFZMAT(1)=1,6,5,1,4,5 fvalue(1)=2.00,2.00 $END                           
 INPUT CARD>                                                                                
 INPUT CARD> $DATA                                                                          
 INPUT CARD>Title                                                                           
 INPUT CARD>C1                                                                              
 INPUT CARD>C     6.0    -0.79306746    -1.21827221     0.13397336                          
 INPUT CARD>C     6.0    -1.60846269     0.00474341    -0.36928016                          
 INPUT CARD>C     6.0    -0.81522101     1.26503003     0.07385489                          
 INPUT CARD>C     6.0     0.64461660    -0.69975555     0.28655112                          
 INPUT CARD>Br    35.0     1.40889919     0.00570833    -1.45051885                         
 INPUT CARD>C     6.0     0.63140219     0.78018802     0.25087568                          
 INPUT CARD>H     1.0    -0.85268760    -2.08351994    -0.52493483                          
 INPUT CARD>H     1.0    -1.10609007    -1.52935994     1.13299692                          
 INPUT CARD>H     1.0    -2.61127687     0.00594432     0.04980627                          
 INPUT CARD>H     1.0    -1.69734907    -0.02229528    -1.45328724                          
 INPUT CARD>H     1.0    -1.13433444     1.61863613     1.05673122                          
 INPUT CARD>H     1.0    -0.88983822     2.09612203    -0.62628132                          
 INPUT CARD>H     1.0     1.41993439    -1.26396251     0.81446910                          
 INPUT CARD>H     1.0     1.39622486     1.38290310     0.75081378                          
 INPUT CARD> $END                                                                           
    1000000 WORDS OF MEMORY AVAILABLE

     BASIS OPTIONS
     -------------
     GBASIS=STO          IGAUSS=       3      POLAR=NONE    
     NDFUNC=       0     NFFUNC=       0     DIFFSP=       F
     NPFUNC=       0      DIFFS=       F     BASNAM=        


     RUN TITLE
     ---------
 Title                                                                           

 THE POINT GROUP OF THE MOLECULE IS C1      
 THE ORDER OF THE PRINCIPAL AXIS IS     0

 ATOM      ATOMIC                      COORDINATES (BOHR)
           CHARGE         X                   Y                   Z
 C           6.0    -1.4986801892       -2.3022006554        0.2531729401
 C           6.0    -3.0395537456        0.0089637451       -0.6978383151
 C           6.0    -1.5405443283        2.3905601229        0.1395655050
 C           6.0     1.2181487411       -1.3223462479        0.5415030983
 BR         35.0     2.6624334134        0.0107871795       -2.7410831665
 C           6.0     1.1931771271        1.4743415767        0.4740862922
 H           1.0    -1.6113459171       -3.9372817766       -0.9919829901
 H           1.0    -2.0902071500       -2.8900712232        2.1410537237
 H           1.0    -4.9345977624        0.0112331360        0.0941202028
 H           1.0    -3.2075246478       -0.0421319700       -2.7463146651
 H           1.0    -2.1435812700        3.0587787595        1.9969324485
 H           1.0    -1.6815504092        3.9610962735       -1.1835000860
 H           1.0     2.6832869176       -2.3885428027        1.5391234245
 H           1.0     2.6384824026        2.6133079266        1.4188323120

          INTERNUCLEAR DISTANCES (ANGS.)
          ------------------------------

                1 C          2 C          3 C          4 C          5 BR    

   1 C       0.0000000    1.5536733 *  2.4841286 *  1.5359280 *  2.9761386 *
   2 C       1.5536733 *  0.0000000    1.5536806 *  2.4500612 *  3.2052380  
   3 C       2.4841286 *  1.5536806 *  0.0000000    2.4569794 *  2.9759565 *
   4 C       1.5359280 *  2.4500612 *  2.4569794 *  0.0000000    2.0246529 *
   5 BR      2.9761386 *  3.2052380    2.9759565 *  2.0246529 *  0.0000000  
   6 C       2.4569541 *  2.4500821 *  1.5359449 *  1.4804325 *  2.0246145 *
   7 H       1.0892053 *  2.2262678 *  3.4018730    2.1943640 *  3.2150203  
   8 H       1.0921570 *  2.2051503 *  3.0024993    2.1141636 *  3.9186936  
   9 H       2.1935532 *  1.0868630 *  2.1935569 *  3.3398956    4.2910128  
  10 H       2.1834565 *  1.0879813 *  2.1834650 *  2.9951282 *  3.1063757  
  11 H       3.0026645    2.2052110 *  1.0922072 *  3.0220497    3.9186575  
  12 H       3.4018467    2.2262828 *  1.0892531 *  3.3173402    3.2145592  
  13 H       2.3157157 *  3.4902816    3.4554641    1.0945979 *  2.5966048 *
  14 H       3.4553735    3.4902839    2.3157418 *  2.2622824 *  2.5966693 *

                6 C          7 H          8 H          9 H         10 H     

   1 C       2.4569541 *  1.0892053 *  1.0921570 *  2.1935532 *  2.1834565 *
   2 C       2.4500821 *  2.2262678 *  2.2051503 *  1.0868630 *  1.0879813 *
   3 C       1.5359449 *  3.4018730    3.0024993    2.1935569 *  2.1834650 *
   4 C       1.4804325 *  2.1943640 *  2.1141636 *  3.3398956    2.9951282 *
   5 BR      2.0246145 *  3.2150203    3.9186936    4.2910128    3.1063757  
   6 C       0.0000000    3.3174128    3.0217593    3.3398877    2.9952017 *
   7 H       3.3174128    0.0000000    1.7663646 *  2.7908465 *  2.4132837 *
   8 H       3.0217593    1.7663646 *  0.0000000    2.4074984 *  3.0511796  
   9 H       3.3398877    2.7908465 *  2.4074984 *  0.0000000    1.7593611 *
  10 H       2.9952017 *  2.4132837 *  3.0511796    1.7593611 *  0.0000000  
  11 H       2.1142905 *  4.0357096    3.1490464    2.4074949 *  3.0512021  
  12 H       2.1943699 *  4.1810356    4.0355848    2.7909297 *  2.4132353 *
  13 H       2.2622935 *  2.7623338 *  2.5598233 *  4.2951178    4.0499275  
  14 H       1.0946037 *  4.3244919    3.8586163    4.2950550    4.0500424  

               11 H         12 H         13 H         14 H     

   1 C       3.0026645    3.4018467    2.3157157 *  3.4553735  
   2 C       2.2052110 *  2.2262828 *  3.4902816    3.4902839  
   3 C       1.0922072 *  1.0892531 *  3.4554641    2.3157418 *
   4 C       3.0220497    3.3173402    1.0945979 *  2.2622824 *
   5 BR      3.9186575    3.2145592    2.5966048 *  2.5966693 *
   6 C       2.1142905 *  2.1943699 *  2.2622935 *  1.0946037 *
   7 H       4.0357096    4.1810356    2.7623338 *  4.3244919  
   8 H       3.1490464    4.0355848    2.5598233 *  3.8586163  
   9 H       2.4074949 *  2.7909297 *  4.2951178    4.2950550  
  10 H       3.0512021    2.4132353 *  4.0499275    4.0500424  
  11 H       0.0000000    1.7664378 *  3.8590614    2.5598605 *
  12 H       1.7664378 *  0.0000000    4.3244629    2.7624548 *
  13 H       3.8590614    4.3244629    0.0000000    2.6477371 *
  14 H       2.5598605 *  2.7624548 *  2.6477371 *  0.0000000  

  * ... LESS THAN  3.000


     ATOMIC BASIS SET
     ----------------
 THE CONTRACTED PRIMITIVE FUNCTIONS HAVE BEEN UNNORMALIZED
 THE CONTRACTED BASIS FUNCTIONS ARE NOW NORMALIZED TO UNITY

  SHELL TYPE  PRIMITIVE        EXPONENT          CONTRACTION COEFFICIENT(S)

 C         

      1   S       1            71.6168373    0.154328967295
      1   S       2            13.0450963    0.535328142282
      1   S       3             3.5305122    0.444634542185

      2   L       4             2.9412494   -0.099967229187    0.155916274999
      2   L       5             0.6834831    0.399512826089    0.607683718598
      2   L       6             0.2222899    0.700115468880    0.391957393099

 C         

      3   S       7            71.6168373    0.154328967295
      3   S       8            13.0450963    0.535328142282
      3   S       9             3.5305122    0.444634542185

      4   L      10             2.9412494   -0.099967229187    0.155916274999
      4   L      11             0.6834831    0.399512826089    0.607683718598
      4   L      12             0.2222899    0.700115468880    0.391957393099

 C         

      5   S      13            71.6168373    0.154328967295
      5   S      14            13.0450963    0.535328142282
      5   S      15             3.5305122    0.444634542185

      6   L      16             2.9412494   -0.099967229187    0.155916274999
      6   L      17             0.6834831    0.399512826089    0.607683718598
      6   L      18             0.2222899    0.700115468880    0.391957393099

 C         

      7   S      19            71.6168373    0.154328967295
      7   S      20            13.0450963    0.535328142282
      7   S      21             3.5305122    0.444634542185

      8   L      22             2.9412494   -0.099967229187    0.155916274999
      8   L      23             0.6834831    0.399512826089    0.607683718598
      8   L      24             0.2222899    0.700115468880    0.391957393099

 BR        

      9   S      25          2629.9974710    0.154328967295
      9   S      26           479.0573224    0.535328142282
      9   S      27           129.6516070    0.444634542185

     10   L      28           219.8350255   -0.099967229187    0.155916274999
     10   L      29            51.0849322    0.399512826089    0.607683718598
     10   L      30            16.6144055    0.700115468880    0.391957393099

     11   L      31            20.6524416   -0.219620369005    0.010587604289
     11   L      32             5.7619788    0.225595433605    0.595167005266
     11   L      33             2.2551994    0.900398426019    0.462001011973

     12   D      34            22.3657496    0.168659606013
     12   D      35             7.0128139    0.584798481745
     12   D      36             2.7316638    0.405677952331

     13   L      37             1.3960375   -0.308844121382   -0.121546859998
     13   L      38             0.5152256    0.019606411652    0.571522760389
     13   L      39             0.2275291    1.131034441567    0.549894947089

 C         

     14   S      40            71.6168373    0.154328967295
     14   S      41            13.0450963    0.535328142282
     14   S      42             3.5305122    0.444634542185

     15   L      43             2.9412494   -0.099967229187    0.155916274999
     15   L      44             0.6834831    0.399512826089    0.607683718598
     15   L      45             0.2222899    0.700115468880    0.391957393099

 H         

     16   S      46             3.4252509    0.154328967295
     16   S      47             0.6239137    0.535328142282
     16   S      48             0.1688554    0.444634542185

 H         

     17   S      49             3.4252509    0.154328967295
     17   S      50             0.6239137    0.535328142282
     17   S      51             0.1688554    0.444634542185

 H         

     18   S      52             3.4252509    0.154328967295
     18   S      53             0.6239137    0.535328142282
     18   S      54             0.1688554    0.444634542185

 H         

     19   S      55             3.4252509    0.154328967295
     19   S      56             0.6239137    0.535328142282
     19   S      57             0.1688554    0.444634542185

 H         

     20   S      58             3.4252509    0.154328967295
     20   S      59             0.6239137    0.535328142282
     20   S      60             0.1688554    0.444634542185

 H         

     21   S      61             3.4252509    0.154328967295
     21   S      62             0.6239137    0.535328142282
     21   S      63             0.1688554    0.444634542185

 H         

     22   S      64             3.4252509    0.154328967295
     22   S      65             0.6239137    0.535328142282
     22   S      66             0.1688554    0.444634542185

 H         

     23   S      67             3.4252509    0.154328967295
     23   S      68             0.6239137    0.535328142282
     23   S      69             0.1688554    0.444634542185

 TOTAL NUMBER OF BASIS SET SHELLS             =   23
 NUMBER OF CARTESIAN GAUSSIAN BASIS FUNCTIONS =   52
 NUMBER OF ELECTRONS                          =   72
 CHARGE OF MOLECULE                           =    1
 SPIN MULTIPLICITY                            =    1
 NUMBER OF OCCUPIED ORBITALS (ALPHA)          =   36
 NUMBER OF OCCUPIED ORBITALS (BETA )          =   36
 TOTAL NUMBER OF ATOMS                        =   14
 THE NUCLEAR REPULSION ENERGY IS      432.5969303398

     $CONTRL OPTIONS
     ---------------
 SCFTYP=RHF          RUNTYP=SADPOINT     EXETYP=RUN     
 MPLEVL=       0     CITYP =NONE         CCTYP =NONE         VBTYP =NONE    
 DFTTYP=NONE         TDDFT =NONE    
 MULT  =       1     ICHARG=       1     NZVAR =       0     COORD =UNIQUE  
 PP    =NONE         RELWFN=NONE         LOCAL =NONE         NUMGRD=       F
 ISPHER=      -1     NOSYM =       0     MAXIT =      30     UNITS =ANGS    
 PLTORB=       F     MOLPLT=       F     AIMPAC=       F     FRIEND=        
 NPRINT=       7     IREST =       0     GEOM  =INPUT   
 NORMF =       0     NORMP =       0     ITOL  =      20     ICUT  =       9
 INTTYP=BEST         GRDTYP=BEST         QMTTOL= 1.0E-06

     $SYSTEM OPTIONS
     ---------------
  REPLICATED MEMORY=     1000000 WORDS (ON EVERY NODE).
 DISTRIBUTED MEMDDI=           0 MILLION WORDS IN AGGREGATE,
 MEMDDI DISTRIBUTED OVER   1 PROCESSORS IS           0 WORDS/PROCESSOR.
 TOTAL MEMORY REQUESTED ON EACH PROCESSOR=     1000000 WORDS.
 TIMLIM=      525600.00 MINUTES, OR     365.0 DAYS.
 PARALL= F  BALTYP=  DLB     KDIAG=    0  COREFL= F
 MXSEQ2=     300 MXSEQ3=     150  mem10=         0

          ----------------
          PROPERTIES INPUT
          ----------------

     MOMENTS            FIELD           POTENTIAL          DENSITY
 IEMOM =       1   IEFLD =       0   IEPOT =       0   IEDEN =       0
 WHERE =COMASS     WHERE =NUCLEI     WHERE =NUCLEI     WHERE =NUCLEI  
 OUTPUT=BOTH       OUTPUT=BOTH       OUTPUT=BOTH       OUTPUT=BOTH    
 IEMINT=       0   IEFINT=       0                     IEDINT=       0
                                                       MORB  =       0
          EXTRAPOLATION IN EFFECT
          SOSCF IN EFFECT
 ORBITAL PRINTING OPTION: NPREO=     1    52     2     1

     -------------------------------
     INTEGRAL TRANSFORMATION OPTIONS
     -------------------------------
     NWORD  =            0
     CUTOFF = 1.0E-09     MPTRAN =       0
     DIRTRF =       F     AOINTS =DUP     

          ----------------------
          INTEGRAL INPUT OPTIONS
          ----------------------
 NOPK  =       1 NORDER=       0 SCHWRZ=       T

     ------------------------------------------
     THE POINT GROUP IS C1 , NAXIS= 0, ORDER= 1
     ------------------------------------------

     DIMENSIONS OF THE SYMMETRY SUBSPACES ARE
 A   =   52

 ..... DONE SETTING UP THE RUN .....
 STEP CPU TIME =     0.03 TOTAL CPU TIME =          0.0 (      0.0 MIN)
 TOTAL WALL CLOCK TIME=          0.0 SECONDS, CPU UTILIZATION IS    75.00%


          -----------------------------
          STATIONARY POINT LOCATION RUN
          -----------------------------

 OBTAINING INITIAL HESSIAN, HESS=CALC    

     ---------------------------------
     HESSIAN MATRIX CONTROL PARAMETERS
     ---------------------------------
     METHOD=ANALYTIC   NVIB  =       2   VIBSIZ= 0.01000
     RDHESS=       F   PURIFY=       F   PRTIFC=       F
     VIBANL=       F   DECOMP=       F   PROJCT=       F
     SCLFAC= 1.00000   PRTSCN=       F   NPRT  =       0
     PULCOR=       F   NPUN  =       0   REDOVB=       T
     HSSTYP=GENERAL 
 Old integral subroutine is used

     ------------------------------
     CPHF RESPONSE SOLUTION OPTIONS
     ------------------------------
     POLAR  =       F     NWORD  =       0
     CPHF   =AO      

          ********************
          1 ELECTRON INTEGRALS
          ********************
 ...... END OF ONE-ELECTRON INTEGRALS ......
 STEP CPU TIME =     0.01 TOTAL CPU TIME =          0.0 (      0.0 MIN)
 TOTAL WALL CLOCK TIME=          0.1 SECONDS, CPU UTILIZATION IS    57.14%

          -------------
          GUESS OPTIONS
          -------------
          GUESS =HUCKEL            NORB  =       0          NORDER=       0
          MIX   =       F          PRTMO =       F          PUNMO =       F
          TOLZ  = 1.0E-08          TOLE  = 1.0E-05
          SYMDEN=       F          PURIFY=       F

 INITIAL GUESS ORBITALS GENERATED BY HUCKEL   ROUTINE.
 HUCKEL GUESS REQUIRES     39958 WORDS.

 SYMMETRIES FOR INITIAL GUESS ORBITALS FOLLOW.   BOTH SET(S).
    36 ORBITALS ARE OCCUPIED (   19 CORE ORBITALS).
    20=A       21=A       22=A       23=A       24=A       25=A       26=A   
    27=A       28=A       29=A       30=A       31=A       32=A       33=A   
    34=A       35=A       36=A       37=A       38=A       39=A       40=A   
    41=A       42=A       43=A       44=A       45=A       46=A   
 ...... END OF INITIAL ORBITAL SELECTION ......
 STEP CPU TIME =     0.02 TOTAL CPU TIME =          0.1 (      0.0 MIN)
 TOTAL WALL CLOCK TIME=          0.1 SECONDS, CPU UTILIZATION IS    66.67%

                    ----------------------
                    AO INTEGRAL TECHNOLOGY
                    ----------------------
     S,P,L SHELL ROTATED AXIS INTEGRALS, REPROGRAMMED BY
        KAZUYA ISHIMURA (IMS) AND JOSE SIERRA (SYNSTAR).
     S,P,D,L SHELL ROTATED AXIS INTEGRALS PROGRAMMED BY
        KAZUYA ISHIMURA (INSTITUTE FOR MOLECULAR SCIENCE).
     S,P,D,F,G SHELL TO TOTAL QUARTET ANGULAR MOMENTUM SUM 5,
        ERIC PROGRAM BY GRAHAM FLETCHER (ELORET AND NASA ADVANCED
        SUPERCOMPUTING DIVISION, AMES RESEARCH CENTER).
     S,P,D,F,G,L SHELL GENERAL RYS QUADRATURE PROGRAMMED BY
        MICHEL DUPUIS (PACIFIC NORTHWEST NATIONAL LABORATORY).

          --------------------
          2 ELECTRON INTEGRALS
          --------------------

 THE -PK- OPTION IS OFF, THE INTEGRALS ARE NOT IN SUPERMATRIX FORM.
 STORING   15000 INTEGRALS/RECORD ON DISK, USING 12 BYTES/INTEGRAL.
 TWO ELECTRON INTEGRAL EVALUATION REQUIRES   90672 WORDS OF MEMORY.
 SCHWARZ INEQUALITY OVERHEAD:      1318 INTEGRALS, T=        0.00
 II,JST,KST,LST =  1  1  1  1 NREC =         1 INTLOC =    1
 II,JST,KST,LST =  2  1  1  1 NREC =         1 INTLOC =    2
 II,JST,KST,LST =  3  1  1  1 NREC =         1 INTLOC =   34
 II,JST,KST,LST =  4  1  1  1 NREC =         1 INTLOC =  139
 II,JST,KST,LST =  5  1  1  1 NREC =         1 INTLOC = 1356
 II,JST,KST,LST =  6  1  1  1 NREC =         1 INTLOC = 1926
 II,JST,KST,LST =  7  1  1  1 NREC =         1 INTLOC = 6782
 II,JST,KST,LST =  8  1  1  1 NREC =         1 INTLOC = 8465
 II,JST,KST,LST =  9  1  1  1 NREC =         2 INTLOC = 5875
 II,JST,KST,LST = 10  1  1  1 NREC =         2 INTLOC = 9118
 II,JST,KST,LST = 11  1  1  1 NREC =         3 INTLOC =12112
 II,JST,KST,LST = 12  1  1  1 NREC =         5 INTLOC =12384
 II,JST,KST,LST = 13  1  1  1 NREC =        10 INTLOC = 9870
 II,JST,KST,LST = 14  1  1  1 NREC =        16 INTLOC = 2138
 II,JST,KST,LST = 15  1  1  1 NREC =        17 INTLOC = 2476
 II,JST,KST,LST = 16  1  1  1 NREC =        26 INTLOC = 5267
 II,JST,KST,LST = 17  1  1  1 NREC =        29 INTLOC = 1040
 II,JST,KST,LST = 18  1  1  1 NREC =        31 INTLOC =12697
 II,JST,KST,LST = 19  1  1  1 NREC =        34 INTLOC = 7001
 II,JST,KST,LST = 20  1  1  1 NREC =        37 INTLOC =10106
 II,JST,KST,LST = 21  1  1  1 NREC =        41 INTLOC =  539
 II,JST,KST,LST = 22  1  1  1 NREC =        44 INTLOC =11779
 II,JST,KST,LST = 23  1  1  1 NREC =        48 INTLOC =11975
 SCHWARZ INEQUALITY TEST SKIPPED        7405 INTEGRAL BLOCKS.
 TOTAL NUMBER OF NONZERO TWO-ELECTRON INTEGRALS =              781053
         53 INTEGRAL RECORDS WERE STORED ON DISK FILE  8.
  ...... END OF TWO-ELECTRON INTEGRALS .....
 STEP CPU TIME =     0.16 TOTAL CPU TIME =          0.2 (      0.0 MIN)
 TOTAL WALL CLOCK TIME=          0.2 SECONDS, CPU UTILIZATION IS    91.67%

          --------------------------
                 RHF SCF CALCULATION
          --------------------------

     NUCLEAR ENERGY =       432.5969303398
     MAXIT =   30     NPUNCH=    2
     EXTRAP=T  DAMP=F  SHIFT=F  RSTRCT=F  DIIS=F  DEM=F  SOSCF=T
     DENSITY MATRIX CONV=  1.00E-05
     SOSCF WILL OPTIMIZE     576 ORBITAL ROTATIONS, SOGTOL=   0.250
     MEMORY REQUIRED FOR RHF ITERS=     51960 WORDS.

 ITER EX DEM     TOTAL ENERGY        E CHANGE  DENSITY CHANGE     ORB. GRAD
   1  0  0    -2736.8071689209 -2736.8071689209  12.309251432   0.000000000
          ---------------START SECOND ORDER SCF---------------
   2  1  0    -2737.4623548010    -0.6551858800   0.190163727   0.033294104
   3  2  0    -2737.4768041384    -0.0144493375   0.038350064   0.008043795
   4  3  0    -2737.4781042461    -0.0013001076   0.018113361   0.003288932
   5  4  0    -2737.4781675677    -0.0000633216   0.001259580   0.000363073
   6  5  0    -2737.4781709891    -0.0000034215   0.000616229   0.000122333
   7  6  0    -2737.4781712479    -0.0000002588   0.000101712   0.000023805
   8  7  0    -2737.4781712598    -0.0000000118   0.000041061   0.000006826
   9  8  0    -2737.4781712612    -0.0000000014   0.000006698   0.000001641
  10  9  0    -2737.4781712613    -0.0000000001   0.000001439   0.000000467

          -----------------
          DENSITY CONVERGED
          -----------------
     TIME TO FORM FOCK OPERATORS=       0.1 SECONDS (       0.0 SEC/ITER)
     TIME TO SOLVE SCF EQUATIONS=       0.1 SECONDS (       0.0 SEC/ITER)

 FINAL RHF ENERGY IS    -2737.4781712613 AFTER  10 ITERATIONS

          ------------
          EIGENVECTORS
          ------------

                      1          2          3          4          5
                 -485.1539   -64.0602   -58.1912   -58.1896   -58.1886
                     A          A          A          A          A   
    1  C  1  S   -0.000000   0.000004  -0.000000  -0.000000  -0.000000
    2  C  1  S    0.000001   0.000126  -0.000009   0.000011   0.000018
    3  C  1  X    0.000000   0.000008  -0.000003   0.000003   0.000003
    4  C  1  Y   -0.000000  -0.000074   0.000001  -0.000005   0.000001
    5  C  1  Z    0.000000   0.000020   0.000004   0.000001   0.000022
    6  C  2  S   -0.000000   0.000001  -0.000001   0.000000   0.000001
    7  C  2  S    0.000001   0.000098  -0.000000   0.000000   0.000008
    8  C  2  X   -0.000001  -0.000155   0.000010   0.000000  -0.000020
    9  C  2  Y   -0.000000  -0.000001  -0.000000  -0.000000  -0.000000
   10  C  2  Z    0.000000   0.000018  -0.000006   0.000000  -0.000000
   11  C  3  S   -0.000000   0.000004  -0.000000   0.000000  -0.000000
   12  C  3  S    0.000001   0.000126  -0.000009  -0.000011   0.000018
   13  C  3  X    0.000000   0.000006  -0.000003  -0.000003   0.000003
   14  C  3  Y    0.000000   0.000075  -0.000001  -0.000005   0.000000
   15  C  3  Z    0.000000   0.000016   0.000004  -0.000001   0.000022
   16  C  4  S    0.000002   0.000362  -0.000034   0.000022   0.000000
   17  C  4  S   -0.000012  -0.002120   0.000218  -0.000148  -0.000004
   18  C  4  X   -0.000005  -0.000942   0.000094  -0.000055   0.000071
   19  C  4  Y   -0.000001  -0.000257   0.000049  -0.000006   0.000004
   20  C  4  Z    0.000012   0.002110  -0.000210   0.000128   0.000025
   21  BR 5  S    0.994693   0.419600   0.000852  -0.000000  -0.000006
   22  BR 5  S    0.014821  -1.059850  -0.002169   0.000000   0.000014
   23  BR 5  X   -0.000004   0.000766  -0.410342  -0.008821   0.904097
   24  BR 5  Y    0.000000  -0.000033   0.018122   0.992566   0.017910
   25  BR 5  Z    0.000008  -0.001656   0.903918  -0.023903   0.410065
   26  BR 5  S   -0.073401   2.443130   0.004701  -0.000000  -0.000032
   27  BR 5  X    0.000002   0.000224  -0.007719  -0.000165   0.016899
   28  BR 5  Y   -0.000000  -0.000010   0.000341   0.018593   0.000335
   29  BR 5  Z   -0.000004  -0.000489   0.017004  -0.000448   0.007665
   30  BR 5 XX    0.032045  -1.127575  -0.002161   0.000001  -0.000053
   31  BR 5 YY    0.032045  -1.127591  -0.002192   0.000003   0.000015
   32  BR 5 ZZ    0.032046  -1.127594  -0.002049  -0.000004   0.000082
   33  BR 5 XY   -0.000000   0.000000  -0.000001  -0.000042   0.000001
   34  BR 5 XZ   -0.000000   0.000013  -0.000075   0.000000   0.000067
   35  BR 5 YZ    0.000000   0.000000   0.000003   0.000091   0.000002
   36  BR 5  S    0.000097   0.019191  -0.000157  -0.000000  -0.000001
   37  BR 5  X   -0.000005  -0.000882   0.000625   0.000012  -0.001183
   38  BR 5  Y    0.000000   0.000039  -0.000028  -0.001350  -0.000023
   39  BR 5  Z    0.000011   0.001942  -0.001379   0.000033  -0.000538
   40  C  6  S    0.000002   0.000362  -0.000034  -0.000022   0.000000
   41  C  6  S   -0.000012  -0.002120   0.000218   0.000148  -0.000004
   42  C  6  X   -0.000005  -0.000947   0.000095   0.000056   0.000071
   43  C  6  Y    0.000002   0.000342  -0.000057  -0.000011  -0.000001
   44  C  6  Z    0.000012   0.002095  -0.000208  -0.000128   0.000026
   45  H  7  S   -0.000001  -0.000113   0.000003  -0.000012  -0.000005
   46  H  8  S   -0.000001  -0.000107   0.000007  -0.000005  -0.000010
   47  H  9  S   -0.000000  -0.000069   0.000004  -0.000000  -0.000008
   48  H 10  S   -0.000001  -0.000258   0.000007  -0.000000  -0.000028
   49  H 11  S   -0.000001  -0.000107   0.000007   0.000005  -0.000010
   50  H 12  S   -0.000001  -0.000113   0.000003   0.000012  -0.000005
   51  H 13  S    0.000000  -0.000004  -0.000007   0.000001  -0.000000
   52  H 14  S    0.000000  -0.000004  -0.000007  -0.000001  -0.000000

                      6          7          8          9         10
                  -11.3781   -11.3780   -11.2748   -11.2747   -11.2444
                     A          A          A          A          A   
    1  C  1  S   -0.000811   0.000349   0.723409   0.678731   0.005898
    2  C  1  S   -0.003813   0.003633   0.027034   0.025522  -0.005386
    3  C  1  X   -0.002709   0.002510   0.000611   0.000467   0.002257
    4  C  1  Y   -0.001063   0.000857   0.000135   0.000025  -0.003264
    5  C  1  Z   -0.000241   0.000225   0.000417   0.000208   0.001379
    6  C  2  S   -0.000369  -0.000016  -0.000220  -0.006910   0.991965
    7  C  2  S    0.000096   0.000004  -0.000255  -0.007988   0.037025
    8  C  2  X   -0.000221  -0.000010  -0.000135  -0.002936   0.000087
    9  C  2  Y   -0.000005   0.000106   0.004661  -0.000217  -0.000002
   10  C  2  Z    0.000063   0.000000  -0.000169  -0.001756  -0.000112
   11  C  3  S   -0.000778  -0.000418  -0.678706   0.723433   0.005899
   12  C  3  S   -0.003489  -0.003946  -0.025352   0.027191  -0.005386
   13  C  3  X   -0.002502  -0.002749  -0.000582   0.000505   0.002198
   14  C  3  Y    0.000929   0.000883   0.000103  -0.000013   0.003367
   15  C  3  Z   -0.000268  -0.000289  -0.000409   0.000235   0.001219
   16  C  4  S    0.731306  -0.670739   0.001072   0.001488   0.000348
   17  C  4  S    0.021625  -0.027496  -0.004346  -0.003872   0.000097
   18  C  4  X    0.000267   0.000066   0.002990   0.002849   0.000090
   19  C  4  Y   -0.001532  -0.004279   0.001110   0.001060  -0.000115
   20  C  4  Z   -0.000852  -0.000013   0.000328   0.000294   0.000101
   21  BR 5  S    0.000042   0.000002   0.000000   0.000001   0.000001
   22  BR 5  S   -0.000132  -0.000006  -0.000000  -0.000001  -0.000001
   23  BR 5  X    0.000055   0.000003   0.000000   0.000007   0.000005
   24  BR 5  Y    0.000001  -0.000079   0.000003  -0.000000   0.000000
   25  BR 5  Z   -0.000119  -0.000003  -0.000000  -0.000002  -0.000001
   26  BR 5  S   -0.000788  -0.000034  -0.000001  -0.000035  -0.000019
   27  BR 5  X   -0.000186  -0.000010  -0.000001  -0.000024  -0.000018
   28  BR 5  Y   -0.000004   0.000271  -0.000011   0.000000  -0.000000
   29  BR 5  Z    0.000404   0.000011   0.000001   0.000007   0.000004
   30  BR 5 XX    0.000402   0.000017   0.000001   0.000023   0.000011
   31  BR 5 YY    0.000403   0.000016   0.000001   0.000023   0.000011
   32  BR 5 ZZ    0.000354   0.000017   0.000001   0.000024   0.000011
   33  BR 5 XY    0.000000   0.000017   0.000002  -0.000000  -0.000000
   34  BR 5 XZ    0.000033   0.000001  -0.000000  -0.000004  -0.000000
   35  BR 5 YZ    0.000001  -0.000037  -0.000002   0.000000   0.000000
   36  BR 5  S   -0.003993  -0.000171  -0.000000  -0.000005  -0.000024
   37  BR 5  X    0.001749   0.000097   0.000002   0.000055   0.000090
   38  BR 5  Y    0.000028  -0.002423  -0.000001   0.000001   0.000000
   39  BR 5  Z   -0.003800  -0.000105   0.000001   0.000022  -0.000016
   40  C  6  S    0.671255   0.730832  -0.000975   0.001554   0.000348
   41  C  6  S    0.019194   0.029245   0.004090  -0.004141   0.000097
   42  C  6  X    0.000239   0.000031  -0.002820   0.003053   0.000088
   43  C  6  Y    0.001854  -0.004130   0.000974  -0.001057   0.000122
   44  C  6  Z   -0.000941   0.000139  -0.000357   0.000367   0.000095
   45  H  7  S   -0.000057  -0.000018  -0.004933  -0.004761   0.000085
   46  H  8  S   -0.000078   0.000075  -0.005066  -0.004730   0.000042
   47  H  9  S   -0.000118  -0.000005   0.000006   0.000192  -0.006902
   48  H 10  S    0.000052   0.000002   0.000004   0.000131  -0.006963
   49  H 11  S   -0.000071  -0.000082   0.004754  -0.005042   0.000042
   50  H 12  S   -0.000058   0.000013   0.004620  -0.005065   0.000085
   51  H 13  S   -0.004709   0.004407   0.000097   0.000015  -0.000111
   52  H 14  S   -0.004315  -0.004794  -0.000096   0.000021  -0.000110

                     11         12         13         14         15
                   -9.5420    -7.2355    -7.2261    -7.2207    -2.6222
                     A          A          A          A          A   
    1  C  1  S    0.000032   0.000038  -0.000016  -0.000031   0.000043
    2  C  1  S    0.000126   0.000179  -0.000246  -0.000371  -0.000447
    3  C  1  X   -0.000026   0.000012  -0.000036  -0.000014  -0.000292
    4  C  1  Y   -0.000104  -0.000069   0.000155   0.000014  -0.000479
    5  C  1  Z    0.000080   0.000028  -0.000113  -0.000597   0.000658
    6  C  2  S    0.000018   0.000038  -0.000000  -0.000041   0.000022
    7  C  2  S    0.000110  -0.000006   0.000000  -0.000163   0.000076
    8  C  2  X   -0.000221  -0.000301  -0.000000   0.000554  -0.000210
    9  C  2  Y   -0.000001   0.000001   0.000016   0.000004  -0.000003
   10  C  2  Z    0.000038   0.000169  -0.000000  -0.000039  -0.000057
   11  C  3  S    0.000032   0.000038   0.000016  -0.000031   0.000043
   12  C  3  S    0.000126   0.000179   0.000246  -0.000371  -0.000448
   13  C  3  X   -0.000028   0.000011   0.000033  -0.000013  -0.000302
   14  C  3  Y    0.000108   0.000071   0.000161  -0.000044   0.000505
   15  C  3  Z    0.000076   0.000025   0.000106  -0.000596   0.000635
   16  C  4  S    0.000611   0.000997  -0.000634  -0.000008  -0.002936
   17  C  4  S   -0.002949  -0.006356   0.003990   0.000087   0.009346
   18  C  4  X   -0.001241  -0.002551   0.001457  -0.001888   0.003618
   19  C  4  Y   -0.000379  -0.001344  -0.000017  -0.000099   0.005196
   20  C  4  Z    0.002767   0.005683  -0.003354  -0.000695  -0.008660
   21  BR 5  S    0.170429  -0.002551   0.000000   0.000022  -0.000169
   22  BR 5  S   -0.524646   0.007892  -0.000000  -0.000066   0.000482
   23  BR 5  X    0.002428   0.172385   0.003716  -0.380699  -0.000884
   24  BR 5  Y   -0.000104  -0.007624  -0.417766  -0.007540   0.000039
   25  BR 5  Z   -0.005232  -0.380175   0.010062  -0.172472   0.001960
   26  BR 5  S    2.305717  -0.033530   0.000000   0.000294  -0.002936
   27  BR 5  X   -0.006082  -0.439745  -0.009482   0.971556   0.002292
   28  BR 5  Y    0.000261   0.019447   1.066010   0.019244  -0.000102
   29  BR 5  Z    0.013103   0.969804  -0.025676   0.440153  -0.005081
   30  BR 5 XX   -0.552187   0.006129   0.000036  -0.003651  -0.105038
   31  BR 5 YY   -0.551565   0.004467   0.000175  -0.000038  -0.651579
   32  BR 5 ZZ   -0.550024   0.012588  -0.000212   0.003484   0.758707
   33  BR 5 XY   -0.000041  -0.000087  -0.002351   0.000048  -0.008093
   34  BR 5 XZ   -0.001429  -0.004325   0.000011   0.003547  -0.569089
   35  BR 5 YZ    0.000030   0.000187   0.005072   0.000130   0.034186
   36  BR 5  S    0.031155   0.005951   0.000000  -0.000003  -0.005089
   37  BR 5  X   -0.001687  -0.021403  -0.000411   0.040439   0.002946
   38  BR 5  Y    0.000074   0.000947   0.046234   0.000801  -0.000133
   39  BR 5  Z    0.003685   0.047225  -0.001114   0.018340  -0.006605
   40  C  6  S    0.000611   0.000997   0.000634  -0.000008  -0.002936
   41  C  6  S   -0.002949  -0.006357  -0.003990   0.000086   0.009349
   42  C  6  X   -0.001249  -0.002578  -0.001458  -0.001890   0.003714
   43  C  6  Y    0.000489   0.001570   0.000118   0.000032  -0.005543
   44  C  6  Z    0.002746   0.005613   0.003351  -0.000699  -0.008403
   45  H  7  S   -0.000150  -0.000081   0.000318   0.000153  -0.000107
   46  H  8  S   -0.000133  -0.000204   0.000138   0.000234   0.000090
   47  H  9  S   -0.000089  -0.000113   0.000000   0.000199  -0.000059
   48  H 10  S   -0.000348  -0.000214   0.000000   0.000779  -0.000101
   49  H 11  S   -0.000133  -0.000204  -0.000138   0.000234   0.000090
   50  H 12  S   -0.000150  -0.000081  -0.000319   0.000154  -0.000107
   51  H 13  S   -0.000072   0.000073   0.000063  -0.000100  -0.000525
   52  H 14  S   -0.000072   0.000073  -0.000063  -0.000100  -0.000525

                     16         17         18         19         20
                   -2.6202    -2.6146    -2.6059    -2.6053    -1.3851
                     A          A          A          A          A   
    1  C  1  S   -0.000032   0.000003  -0.000029   0.000055  -0.065820
    2  C  1  S    0.000770   0.000956  -0.000361  -0.000432   0.166330
    3  C  1  X    0.000441   0.000380  -0.000057  -0.000352   0.038273
    4  C  1  Y    0.000032   0.000166   0.000033  -0.000100   0.036880
    5  C  1  Z   -0.000429   0.000491  -0.000316   0.000390  -0.002523
    6  C  2  S    0.000000   0.000021  -0.000000   0.000024  -0.047693
    7  C  2  S   -0.000000   0.000062   0.000000   0.000125   0.118463
    8  C  2  X   -0.000001  -0.000248   0.000000  -0.000308   0.034999
    9  C  2  Y    0.000062  -0.000001   0.000006  -0.000003   0.000593
   10  C  2  Z   -0.000002   0.000052  -0.000000  -0.000011   0.011648
   11  C  3  S    0.000032   0.000003   0.000029   0.000055  -0.065816
   12  C  3  S   -0.000770   0.000956   0.000361  -0.000432   0.166321
   13  C  3  X   -0.000442   0.000382   0.000056  -0.000354   0.038925
   14  C  3  Y    0.000045  -0.000135   0.000049   0.000112  -0.036271
   15  C  3  Z    0.000427   0.000499   0.000314   0.000385  -0.000754
   16  C  4  S    0.002740   0.000009  -0.000008  -0.001077  -0.137825
   17  C  4  S   -0.012530  -0.000071   0.000102   0.003963   0.371338
   18  C  4  X   -0.004179   0.004539  -0.002160   0.001571  -0.014880
   19  C  4  Y   -0.002689   0.000076  -0.000063  -0.000174   0.094340
   20  C  4  Z    0.009578   0.001782  -0.000829  -0.003634  -0.045656
   21  BR 5  S    0.000000   0.000001  -0.000000  -0.000135  -0.012948
   22  BR 5  S   -0.000000  -0.000003   0.000000   0.000402   0.040459
   23  BR 5  X   -0.000018   0.001997   0.000000  -0.000120  -0.007161
   24  BR 5  Y    0.001996   0.000039  -0.000019   0.000006   0.000282
   25  BR 5  Z   -0.000048   0.000881   0.000000   0.000307   0.014371
   26  BR 5  S    0.000000   0.000008  -0.000000  -0.002068  -0.196042
   27  BR 5  X    0.000047  -0.005344  -0.000000   0.000293   0.021376
   28  BR 5  Y   -0.005240  -0.000104   0.000050  -0.000016  -0.000843
   29  BR 5  Z    0.000126  -0.002357  -0.000001  -0.000756  -0.042907
   30  BR 5 XX    0.006358  -0.652029  -0.014015  -0.750049   0.048088
   31  BR 5 YY    0.031610   0.001517   0.031225   0.757064   0.050063
   32  BR 5 ZZ   -0.037968   0.650507  -0.017211  -0.005577   0.032639
   33  BR 5 XY   -0.412915   0.009158   0.910216  -0.027307   0.000255
   34  BR 5 XZ    0.001854   0.658555  -0.025593  -0.491262   0.011422
   35  BR 5 YZ    0.909534   0.023922   0.412137  -0.025596  -0.000383
   36  BR 5  S   -0.000000  -0.000043   0.000000  -0.001739   0.302332
   37  BR 5  X    0.000034  -0.000201   0.000000   0.001131  -0.049207
   38  BR 5  Y   -0.003800  -0.000005  -0.000012  -0.000051   0.001902
   39  BR 5  Z    0.000091  -0.000146   0.000000  -0.002538   0.097191
   40  C  6  S   -0.002740   0.000009   0.000008  -0.001077  -0.137825
   41  C  6  S    0.012530  -0.000071  -0.000102   0.003963   0.371337
   42  C  6  X    0.004231   0.004540   0.002160   0.001569  -0.013173
   43  C  6  Y   -0.003071   0.000092   0.000016   0.000027  -0.096682
   44  C  6  Z   -0.009439   0.001783   0.000831  -0.003639  -0.041060
   45  H  7  S   -0.000137  -0.000076   0.000203   0.000067   0.024390
   46  H  8  S   -0.000139  -0.000182   0.000113   0.000007   0.025383
   47  H  9  S    0.000000  -0.000088   0.000000  -0.000096   0.015284
   48  H 10  S   -0.000000  -0.000302   0.000000  -0.000482   0.019606
   49  H 11  S    0.000139  -0.000182  -0.000113   0.000007   0.025377
   50  H 12  S    0.000137  -0.000076  -0.000203   0.000067   0.024389
   51  H 13  S    0.000577  -0.000529  -0.000082  -0.000512   0.057203
   52  H 14  S   -0.000577  -0.000529   0.000082  -0.000512   0.057200

                     21         22         23         24         25
                   -1.2080    -1.1599    -1.0712    -0.9645    -0.9617
                     A          A          A          A          A   
    1  C  1  S    0.104301   0.137925   0.002552   0.083676  -0.080235
    2  C  1  S   -0.289826  -0.394906  -0.006352  -0.263296   0.254213
    3  C  1  X    0.034931  -0.055168  -0.080229  -0.078800  -0.113655
    4  C  1  Y   -0.052800   0.006559   0.021316   0.127410  -0.039980
    5  C  1  Z    0.009832  -0.008629  -0.056188  -0.051056  -0.011652
    6  C  2  S    0.139741  -0.000033  -0.095167  -0.132135  -0.000180
    7  C  2  S   -0.383306   0.000093   0.282374   0.412700   0.000563
    8  C  2  X   -0.047988  -0.000902  -0.014997  -0.092220   0.001090
    9  C  2  Y   -0.001039   0.101925  -0.000751  -0.002107  -0.137157
   10  C  2  Z   -0.025891  -0.002464  -0.025023  -0.060513   0.003243
   11  C  3  S    0.104254  -0.137955   0.002575   0.083459   0.080469
   12  C  3  S   -0.289697   0.394995  -0.006421  -0.262612  -0.254952
   13  C  3  X    0.033995   0.055016  -0.079809  -0.076812   0.114118
   14  C  3  Y    0.053831   0.007917  -0.025440  -0.131001  -0.037695
   15  C  3  Z    0.007261   0.008260  -0.055060  -0.044811   0.013431
   16  C  4  S   -0.034367   0.096318   0.088423  -0.031582   0.110859
   17  C  4  S    0.104044  -0.297517  -0.279294   0.104228  -0.382021
   18  C  4  X    0.113629   0.062270   0.018552   0.148979  -0.139563
   19  C  4  Y    0.062647   0.096908  -0.045783   0.148387   0.129516
   20  C  4  Z   -0.029008   0.013482  -0.110590   0.055726  -0.035754
   21  BR 5  S   -0.015330   0.000001  -0.026689   0.009347   0.000012
   22  BR 5  S    0.048472  -0.000002   0.085416  -0.030236  -0.000038
   23  BR 5  X   -0.002612  -0.000062  -0.002249   0.000933  -0.000128
   24  BR 5  Y    0.000250   0.006810  -0.000004   0.000186   0.014545
   25  BR 5  Z    0.011318  -0.000165   0.000719   0.008255  -0.000339
   26  BR 5  S   -0.229792   0.000008  -0.396402   0.137746   0.000174
   27  BR 5  X    0.007824   0.000185   0.006747  -0.002809   0.000385
   28  BR 5  Y   -0.000749  -0.020423   0.000011  -0.000558  -0.043753
   29  BR 5  Z   -0.033894   0.000495  -0.002142  -0.024822   0.001018
   30  BR 5 XX    0.055942  -0.000056   0.088979  -0.029010  -0.000071
   31  BR 5 YY    0.054268  -0.000197   0.088693  -0.028865  -0.000363
   32  BR 5 ZZ    0.045198   0.000247   0.094681  -0.038176   0.000312
   33  BR 5 XY    0.000093   0.003443  -0.000052   0.000035   0.002238
   34  BR 5 XZ    0.003152  -0.000030  -0.002279   0.001656   0.000026
   35  BR 5 YZ   -0.000225  -0.005942   0.000147  -0.000232  -0.008657
   36  BR 5  S    0.398353  -0.000014   0.759814  -0.285385  -0.000364
   37  BR 5  X   -0.020150  -0.000502  -0.026332   0.012897  -0.001125
   38  BR 5  Y    0.001965   0.055546   0.000250   0.001426   0.128598
   39  BR 5  Z    0.088818  -0.001346   0.020442   0.062311  -0.003007
   40  C  6  S   -0.034396  -0.096295   0.088441  -0.031273  -0.110942
   41  C  6  S    0.104128   0.297449  -0.279354   0.103161   0.382295
   42  C  6  X    0.114715  -0.064021   0.017791   0.151202   0.137628
   43  C  6  Y   -0.061909   0.095037   0.040704  -0.143215   0.133142
   44  C  6  Z   -0.026007  -0.018134  -0.112677   0.062701   0.029609
   45  H  7  S   -0.058954  -0.101548   0.009864  -0.122516   0.108329
   46  H  8  S   -0.066150  -0.099036  -0.017420  -0.118564   0.100925
   47  H  9  S   -0.080496   0.000022   0.083026   0.165004   0.000231
   48  H 10  S   -0.080750   0.000022   0.096983   0.168760   0.000229
   49  H 11  S   -0.066112   0.099044  -0.017434  -0.118275  -0.101245
   50  H 12  S   -0.058920   0.101564   0.009847  -0.122221  -0.108668
   51  H 13  S    0.037114  -0.082677  -0.093735   0.065954  -0.237776
   52  H 14  S    0.037130   0.082648  -0.093762   0.065306   0.237943

                     26         27         28         29         30
                   -0.8956    -0.8154    -0.7539    -0.7498    -0.7148
                     A          A          A          A          A   
    1  C  1  S   -0.019469   0.000535   0.019344   0.001754  -0.005661
    2  C  1  S    0.066952  -0.000854  -0.065423  -0.003802   0.021075
    3  C  1  X   -0.076928  -0.105197   0.157369   0.069770   0.281997
    4  C  1  Y   -0.154907   0.116518   0.231390  -0.015052   0.192428
    5  C  1  Z    0.038351   0.277226   0.022414  -0.388892   0.086186
    6  C  2  S   -0.020781  -0.002238  -0.024082   0.000016   0.000009
    7  C  2  S    0.066000   0.007232   0.086147  -0.000057  -0.000034
    8  C  2  X   -0.138588  -0.083052   0.151377   0.000699  -0.000891
    9  C  2  Y   -0.001380   0.006756   0.000031  -0.087436   0.097850
   10  C  2  Z   -0.006142   0.308600  -0.052839   0.002216  -0.002463
   11  C  3  S   -0.019474   0.000527   0.019346  -0.001785   0.005652
   12  C  3  S    0.066970  -0.000826  -0.065433   0.003909  -0.021045
   13  C  3  X   -0.079689  -0.103269   0.161265  -0.069896  -0.285414
   14  C  3  Y    0.155165  -0.104782  -0.227093   0.002782   0.183144
   15  C  3  Z    0.030858   0.282474   0.033935   0.389181  -0.095316
   16  C  4  S   -0.001365   0.011304  -0.010759  -0.007326  -0.030224
   17  C  4  S    0.005309  -0.045297   0.041298   0.041592   0.127395
   18  C  4  X    0.268074  -0.010713  -0.129393  -0.027312  -0.375512
   19  C  4  Y   -0.238573   0.108306  -0.326292   0.004689  -0.007265
   20  C  4  Z    0.145003   0.093294   0.116074  -0.151786  -0.132951
   21  BR 5  S   -0.003443  -0.006273  -0.006442   0.000003  -0.000001
   22  BR 5  S    0.011259   0.020328   0.021311  -0.000008   0.000002
   23  BR 5  X    0.014172   0.012204   0.006135   0.000200   0.000031
   24  BR 5  Y    0.000084  -0.000080  -0.000701  -0.022386  -0.003103
   25  BR 5  Z   -0.001784  -0.007808  -0.030845   0.000556   0.000074
   26  BR 5  S   -0.050282  -0.092831  -0.093477   0.000037  -0.000009
   27  BR 5  X   -0.042663  -0.036766  -0.018465  -0.000602  -0.000094
   28  BR 5  Y   -0.000253   0.000240   0.002113   0.067501   0.009360
   29  BR 5  Z    0.005354   0.023498   0.092948  -0.001676  -0.000224
   30  BR 5 XX    0.014969   0.021524   0.019583   0.000039   0.000046
   31  BR 5 YY    0.008388   0.021683   0.017866   0.000101  -0.000062
   32  BR 5 ZZ    0.012241   0.021785   0.029906  -0.000166   0.000023
   33  BR 5 XY   -0.000095  -0.000051  -0.000101  -0.002965  -0.002798
   34  BR 5 XZ   -0.006772  -0.002030  -0.004819   0.000041   0.000072
   35  BR 5 YZ    0.000047  -0.000015   0.000294   0.003665  -0.000517
   36  BR 5  S    0.111653   0.194537   0.223038  -0.000091   0.000019
   37  BR 5  X    0.127132   0.116696   0.049472   0.001951   0.000313
   38  BR 5  Y    0.000928  -0.000625  -0.006455  -0.218044  -0.031399
   39  BR 5  Z   -0.008764  -0.068854  -0.281081   0.005405   0.000752
   40  C  6  S   -0.001371   0.011310  -0.010740   0.007335   0.030230
   41  C  6  S    0.005332  -0.045319   0.041207  -0.041624  -0.127423
   42  C  6  X    0.263683  -0.008825  -0.135071   0.027252   0.375570
   43  C  6  Y    0.250031  -0.103856   0.329165   0.012099   0.005620
   44  C  6  Z    0.133246   0.098394   0.100509   0.151252   0.133088
   45  H  7  S    0.088734  -0.179987  -0.189238   0.196272  -0.183238
   46  H  8  S    0.090853   0.181949  -0.097926  -0.300070  -0.045500
   47  H  9  S    0.098297   0.139501  -0.088718   0.000065  -0.000030
   48  H 10  S    0.034750  -0.215195   0.067469  -0.000098   0.000067
   49  H 11  S    0.090875   0.181877  -0.097598   0.300186   0.045605
   50  H 12  S    0.088709  -0.179925  -0.189356  -0.196106   0.183353
   51  H 13  S    0.240148  -0.034367   0.144993  -0.062943  -0.231651
   52  H 14  S    0.240144  -0.034375   0.145164   0.062757   0.231570

                     31         32         33         34         35
                   -0.6785    -0.6690    -0.6535    -0.6176    -0.6121
                     A          A          A          A          A   
    1  C  1  S   -0.027964  -0.010273   0.017982   0.002526  -0.008390
    2  C  1  S    0.109084   0.045256  -0.077571  -0.009758   0.034769
    3  C  1  X   -0.213304  -0.027468   0.205030  -0.020725   0.074557
    4  C  1  Y    0.111621   0.139371  -0.389901   0.039049   0.079512
    5  C  1  Z   -0.073356  -0.141998   0.041760   0.253520  -0.134125
    6  C  2  S   -0.002278  -0.014134  -0.000007  -0.002088  -0.000003
    7  C  2  S    0.019575   0.060183   0.000029   0.007247   0.000009
    8  C  2  X    0.498952   0.091685  -0.004283   0.108186   0.000822
    9  C  2  Y    0.004117   0.010660   0.484460  -0.005100  -0.088089
   10  C  2  Z   -0.013102   0.411142  -0.011587  -0.253570   0.002073
   11  C  3  S   -0.027966  -0.010253  -0.017987   0.002523   0.008389
   12  C  3  S    0.109095   0.045174   0.077590  -0.009744  -0.034765
   13  C  3  X   -0.211169  -0.024927  -0.198048  -0.020210  -0.076032
   14  C  3  Y   -0.118833  -0.146246  -0.395155  -0.027190   0.084546
   15  C  3  Z   -0.067798  -0.135130  -0.022892   0.255105   0.130236
   16  C  4  S    0.028316   0.010417   0.011718   0.015914  -0.012599
   17  C  4  S   -0.117731  -0.033455  -0.051936  -0.055132   0.022670
   18  C  4  X    0.193395   0.101174  -0.057594   0.074648  -0.086552
   19  C  4  Y    0.136221  -0.222830  -0.037317  -0.154490  -0.057418
   20  C  4  Z    0.116057  -0.201893   0.008697  -0.204063   0.200793
   21  BR 5  S   -0.001532   0.005304   0.000000   0.004430   0.000000
   22  BR 5  S    0.004996  -0.017381  -0.000001  -0.014568  -0.000000
   23  BR 5  X    0.024465  -0.009580  -0.000110  -0.022144  -0.000736
   24  BR 5  Y    0.000213   0.000753   0.012431   0.000849   0.084101
   25  BR 5  Z    0.000032   0.034722  -0.000294   0.043935  -0.002016
   26  BR 5  S   -0.022624   0.078098   0.000006   0.065246   0.000001
   27  BR 5  X   -0.073840   0.028867   0.000331   0.066808   0.002223
   28  BR 5  Y   -0.000643  -0.002271  -0.037517  -0.002562  -0.253914
   29  BR 5  Z   -0.000133  -0.104706   0.000889  -0.132529   0.006086
   30  BR 5 XX    0.006335  -0.016628  -0.000005  -0.014468  -0.000024
   31  BR 5 YY    0.006122  -0.019705  -0.000066  -0.016075  -0.000128
   32  BR 5 ZZ    0.003517  -0.019276   0.000067  -0.016184   0.000151
   33  BR 5 XY   -0.000063   0.000067   0.000240   0.000045   0.001555
   34  BR 5 XZ   -0.002680   0.001486   0.000009   0.001200  -0.000005
   35  BR 5 YZ   -0.000095   0.000025  -0.001637   0.000008  -0.003632
   36  BR 5  S    0.049750  -0.174832  -0.000013  -0.148137  -0.000006
   37  BR 5  X    0.243436  -0.091684  -0.001093  -0.220512  -0.007470
   38  BR 5  Y    0.002171   0.007385   0.123811   0.008426   0.853655
   39  BR 5  Z    0.002472   0.339663  -0.002933   0.436338  -0.020461
   40  C  6  S    0.028310   0.010437  -0.011714   0.015905   0.012601
   41  C  6  S   -0.117709  -0.033536   0.051922  -0.055101  -0.022678
   42  C  6  X    0.195653   0.097450   0.058285   0.071989   0.087671
   43  C  6  Y   -0.126983   0.214619  -0.036581   0.145806  -0.065478
   44  C  6  Z    0.122439  -0.212393  -0.006958  -0.211243  -0.197844
   45  H  7  S    0.026692  -0.002849   0.221397  -0.196395   0.023956
   46  H  8  S    0.018615  -0.135031   0.044490   0.231217  -0.154477
   47  H  9  S   -0.400669   0.093703   0.000030  -0.184652  -0.000052
   48  H 10  S   -0.021145  -0.362707  -0.000127   0.252996   0.000055
   49  H 11  S    0.018589  -0.135013  -0.044650   0.231174   0.154559
   50  H 12  S    0.026683  -0.002621  -0.221365  -0.196471  -0.024046
   51  H 13  S    0.057637   0.074364  -0.051741  -0.002319   0.104307
   52  H 14  S    0.057609   0.074431   0.051778  -0.002269  -0.104348

                     36         37         38         39         40
                   -0.5876     0.0011     0.0264     0.3298     0.3463
                     A          A          A          A          A   
    1  C  1  S   -0.003473   0.011342  -0.000903  -0.020892  -0.039911
    2  C  1  S    0.011767  -0.053741   0.005339   0.119479   0.210002
    3  C  1  X    0.118711  -0.085610   0.036472   0.702973  -0.041875
    4  C  1  Y    0.000576  -0.039590   0.018399  -0.021833   0.424105
    5  C  1  Z    0.007348   0.001946   0.005966   0.101094  -0.070391
    6  C  2  S   -0.000907   0.000008  -0.002657  -0.047151  -0.000014
    7  C  2  S   -0.001036  -0.000040   0.012515   0.246438   0.000081
    8  C  2  X   -0.080129  -0.000161   0.007767   0.370672  -0.005810
    9  C  2  Y   -0.002299   0.015284   0.000633   0.006050   0.651817
   10  C  2  Z   -0.066018  -0.000392   0.024322   0.115167  -0.015752
   11  C  3  S   -0.003479  -0.011335  -0.000911  -0.020920   0.039910
   12  C  3  S    0.011788   0.053705   0.005381   0.119632  -0.209992
   13  C  3  X    0.118732   0.086214   0.036835   0.702524   0.034218
   14  C  3  Y    0.001875  -0.038092  -0.017470   0.039111   0.427787
   15  C  3  Z    0.007269  -0.000038   0.006860   0.099721   0.049817
   16  C  4  S   -0.004208  -0.050355   0.054904   0.044650  -0.060813
   17  C  4  S    0.020042   0.270237  -0.251700  -0.248631   0.374935
   18  C  4  X   -0.107548   0.245691  -0.196652   0.531713   0.167684
   19  C  4  Y   -0.035051  -0.065340  -0.027452   0.134971   0.712644
   20  C  4  Z   -0.047553  -0.658927   0.555049   0.107096   0.008908
   21  BR 5  S    0.000001   0.000003  -0.009131   0.000275  -0.000000
   22  BR 5  S    0.000022  -0.000011   0.031553  -0.000970   0.000000
   23  BR 5  X    0.086588  -0.000406  -0.031889  -0.004416  -0.000054
   24  BR 5  Y    0.001718   0.046958   0.001405  -0.000140   0.005906
   25  BR 5  Z    0.039832  -0.001154   0.069420  -0.004278  -0.000142
   26  BR 5  S    0.000127   0.000046  -0.131604   0.004040  -0.000001
   27  BR 5  X   -0.261647   0.001231   0.096511   0.013418   0.000164
   28  BR 5  Y   -0.005190  -0.142210  -0.004251   0.000424  -0.017916
   29  BR 5  Z   -0.120356   0.003496  -0.210094   0.012982   0.000431
   30  BR 5 XX   -0.000936   0.000117   0.026730   0.001384   0.000030
   31  BR 5 YY   -0.000226   0.000604   0.027882  -0.000321   0.000193
   32  BR 5 ZZ    0.001197  -0.000757   0.047713  -0.004366  -0.000222
   33  BR 5 XY    0.000014  -0.008205  -0.000357  -0.000042  -0.001872
   34  BR 5 XZ    0.000861   0.000044  -0.014216  -0.002424  -0.000003
   35  BR 5 YZ    0.000047   0.017760   0.000432  -0.000132   0.005324
   36  BR 5  S    0.001276  -0.000132   0.395057  -0.011744   0.000007
   37  BR 5  X    0.898602  -0.004719  -0.376325  -0.056399  -0.000707
   38  BR 5  Y    0.017853   0.545258   0.016569  -0.001737   0.077471
   39  BR 5  Z    0.414424  -0.013404   0.818987  -0.052640  -0.001864
   40  C  6  S   -0.004215   0.050315   0.054944   0.044717   0.060780
   41  C  6  S    0.020067  -0.270061  -0.251916  -0.249030  -0.374731
   42  C  6  X   -0.108168  -0.244736  -0.197607   0.533960  -0.180304
   43  C  6  Y    0.030820  -0.037939   0.050600  -0.120092   0.708408
   44  C  6  Z   -0.049107   0.660956   0.553640   0.113298  -0.043095
   45  H  7  S   -0.011909  -0.093235   0.096345   0.034745   0.242182
   46  H  8  S   -0.035743   0.138688  -0.115304   0.059380   0.071499
   47  H  9  S    0.042770  -0.000001   0.006657   0.261429  -0.000056
   48  H 10  S    0.050329   0.000014  -0.001226   0.000895  -0.000008
   49  H 11  S   -0.035814  -0.138579  -0.115384   0.059353  -0.071672
   50  H 12  S   -0.011886   0.093207   0.096441   0.034753  -0.242174
   51  H 13  S   -0.079537  -0.104516  -0.010980  -0.236843   0.052522
   52  H 14  S   -0.079520   0.104570  -0.010901  -0.236610  -0.052777

                     41         42         43         44         45
                    0.3672     0.3738     0.4187     0.4974     0.5029
                     A          A          A          A          A   
    1  C  1  S   -0.003154   0.061435   0.041014  -0.165417  -0.032466
    2  C  1  S   -0.002223  -0.344349  -0.250638   1.017555   0.194995
    3  C  1  X    0.183147  -0.333732   0.060493   0.045563  -0.581131
    4  C  1  Y    0.148595  -0.204674   0.116526   0.125197   0.228190
    5  C  1  Z   -0.205538   0.182781   0.483588   0.081929   0.269304
    6  C  2  S    0.053005   0.000003   0.002455   0.070030   0.000094
    7  C  2  S   -0.307916  -0.000011  -0.034725  -0.389627  -0.000510
    8  C  2  X    0.072056   0.001860  -0.016661  -0.679027  -0.006556
    9  C  2  Y   -0.005272  -0.216151   0.014242  -0.009197   0.604807
   10  C  2  Z   -0.249443   0.005214   0.593547  -0.088752  -0.014717
   11  C  3  S   -0.003128  -0.061435   0.041020  -0.165650   0.031880
   12  C  3  S   -0.002361   0.344353  -0.250672   1.018966  -0.191366
   13  C  3  X    0.185899   0.337169   0.062346   0.045915   0.577367
   14  C  3  Y   -0.154921  -0.207289  -0.091922  -0.120806   0.225012
   15  C  3  Z   -0.198275  -0.172802   0.488750   0.089406  -0.279860
   16  C  4  S    0.096898  -0.164930   0.027537   0.051331   0.025327
   17  C  4  S   -0.609569   1.004966  -0.186658  -0.321228  -0.173941
   18  C  4  X   -0.230973  -0.033320  -0.105829   0.225537  -0.324828
   19  C  4  Y    0.340245   0.099380   0.113839   0.163258  -0.430957
   20  C  4  Z   -0.174251   0.233318  -0.184698  -0.015416  -0.144773
   21  BR 5  S   -0.000813  -0.000000   0.000705  -0.000375  -0.000001
   22  BR 5  S    0.002707   0.000000  -0.002611   0.001173   0.000003
   23  BR 5  X    0.000853  -0.000041   0.002284  -0.004095   0.000001
   24  BR 5  Y    0.000149   0.004780  -0.000047  -0.000055  -0.000921
   25  BR 5  Z    0.005843  -0.000114  -0.002783  -0.000842   0.000022
   26  BR 5  S   -0.012300  -0.000001   0.009725  -0.006340  -0.000015
   27  BR 5  X   -0.002599   0.000125  -0.006925   0.012454  -0.000002
   28  BR 5  Y   -0.000454  -0.014519   0.000143   0.000168   0.002799
   29  BR 5  Z   -0.017755   0.000346   0.008417   0.002549  -0.000067
   30  BR 5 XX    0.000162   0.000031  -0.003033   0.002435   0.000006
   31  BR 5 YY    0.003580   0.000150  -0.001978   0.001944  -0.000082
   32  BR 5 ZZ    0.005292  -0.000180  -0.003465   0.000047   0.000086
   33  BR 5 XY   -0.000045  -0.002030   0.000029  -0.000031  -0.000078
   34  BR 5 XZ   -0.000423   0.000010   0.001667  -0.001466   0.000017
   35  BR 5 YZ    0.000045   0.004344  -0.000027  -0.000063  -0.002032
   36  BR 5  S    0.031792   0.000005  -0.039149   0.010610   0.000031
   37  BR 5  X    0.009219  -0.000535   0.032306  -0.049861   0.000028
   38  BR 5  Y    0.001822   0.061961  -0.000665  -0.000692  -0.013642
   39  BR 5  Z    0.071750  -0.001476  -0.039200  -0.011103   0.000325
   40  C  6  S    0.096916   0.164911   0.027556   0.051446  -0.025145
   41  C  6  S   -0.609675  -1.004845  -0.186769  -0.321983   0.172800
   42  C  6  X   -0.224869   0.031487  -0.103591   0.227686   0.333176
   43  C  6  Y   -0.352079   0.088670  -0.124402  -0.158507  -0.418194
   44  C  6  Z   -0.157631  -0.237876  -0.179026  -0.008193   0.165271
   45  H  7  S   -0.008239   0.143594   0.540453  -0.345604   0.212631
   46  H  8  S    0.312566  -0.183354  -0.296351  -0.477802  -0.434027
   47  H  9  S    0.384372  -0.000067  -0.267689  -0.343076  -0.000686
   48  H 10  S   -0.133733  -0.000009   0.662946   0.098833   0.000183
   49  H 11  S    0.312697   0.183298  -0.296342  -0.480108   0.432212
   50  H 12  S   -0.008429  -0.143688   0.540569  -0.344974  -0.213997
   51  H 13  S    0.741595  -0.604335   0.302352   0.108245   0.152450
   52  H 14  S    0.741606   0.604381   0.302347   0.108718  -0.152070

                     46         47         48         49         50
                    0.5313     0.5367     0.5591     0.6054     0.6077
                     A          A          A          A          A   
    1  C  1  S    0.010052   0.089305  -0.125664  -0.048603   0.014416
    2  C  1  S   -0.034163  -0.564193   0.804684   0.316399  -0.079807
    3  C  1  X    0.096346  -0.286680  -0.182446  -0.187049  -0.169927
    4  C  1  Y   -0.648036   0.077400  -0.341541  -0.397977  -0.443000
    5  C  1  Z    0.187620  -0.615133  -0.348410   0.006861   0.089257
    6  C  2  S   -0.194284  -0.000119  -0.000111   0.122615   0.000203
    7  C  2  S    1.203062   0.000718   0.000708  -0.797058  -0.001313
    8  C  2  X    0.144375  -0.001707  -0.004397   0.713256   0.003553
    9  C  2  Y    0.001464   0.243547   0.468334   0.014106  -0.246620
   10  C  2  Z    0.024582  -0.005973  -0.011487   0.298314   0.006097
   11  C  3  S    0.010017  -0.089129   0.125651  -0.048480  -0.014613
   12  C  3  S   -0.033953   0.563102  -0.804557   0.315632   0.081096
   13  C  3  X    0.084029   0.284872   0.188461  -0.194675   0.177034
   14  C  3  Y    0.658137   0.112940  -0.320593   0.395753  -0.442350
   15  C  3  Z    0.155157   0.610604   0.364598  -0.011937  -0.067370
   16  C  4  S    0.018450  -0.033895  -0.014087  -0.005882  -0.026997
   17  C  4  S   -0.128457   0.204228   0.100418   0.038742   0.171360
   18  C  4  X   -0.222535  -0.424069   0.164858  -0.091963  -0.590728
   19  C  4  Y    0.145422  -0.180264  -0.005526   0.004962   0.595888
   20  C  4  Z   -0.101840   0.061088   0.168458  -0.006361  -0.291625
   21  BR 5  S   -0.000548  -0.000000  -0.000000   0.000019   0.000000
   22  BR 5  S    0.001754   0.000001   0.000001  -0.000043  -0.000000
   23  BR 5  X   -0.000129   0.000019   0.000020   0.001620  -0.000012
   24  BR 5  Y    0.000031  -0.002000  -0.002246   0.000037   0.001531
   25  BR 5  Z    0.001246   0.000050   0.000054   0.001039  -0.000035
   26  BR 5  S   -0.009054  -0.000005  -0.000003   0.000493   0.000002
   27  BR 5  X    0.000404  -0.000058  -0.000059  -0.004927   0.000035
   28  BR 5  Y   -0.000095   0.006061   0.006819  -0.000112  -0.004632
   29  BR 5  Z   -0.003799  -0.000153  -0.000165  -0.003160   0.000107
   30  BR 5 XX    0.001283   0.000007  -0.000016  -0.000856   0.000036
   31  BR 5 YY    0.002631  -0.000109  -0.000012   0.000144   0.000049
   32  BR 5 ZZ    0.002585   0.000106   0.000031   0.000409  -0.000086
   33  BR 5 XY    0.000010  -0.000439   0.001085  -0.000001  -0.002424
   34  BR 5 XZ    0.000981   0.000034  -0.000019   0.000212   0.000040
   35  BR 5 YZ    0.000009  -0.002477  -0.000722   0.000005   0.002080
   36  BR 5  S    0.016355   0.000015   0.000002   0.000537   0.000000
   37  BR 5  X    0.000946   0.000266   0.000253   0.019283  -0.000202
   38  BR 5  Y    0.000382  -0.027899  -0.028764   0.000440   0.025260
   39  BR 5  Z    0.014178   0.000700   0.000692   0.013013  -0.000589
   40  C  6  S    0.018397   0.033870   0.014117  -0.005971   0.026981
   41  C  6  S   -0.128125  -0.204076  -0.100619   0.039295  -0.171257
   42  C  6  X   -0.220297   0.426716  -0.164751  -0.093987   0.579522
   43  C  6  Y   -0.153944  -0.175431  -0.016756  -0.009018   0.619648
   44  C  6  Z   -0.094503  -0.052572  -0.168025  -0.007090   0.262312
   45  H  7  S   -0.305317  -0.059607  -0.781643  -0.410281  -0.213058
   46  H  8  S   -0.247481   0.695727  -0.189274  -0.293700  -0.178152
   47  H  9  S   -0.434963   0.000080  -0.000440   0.804162   0.001599
   48  H 10  S   -0.488539  -0.000380  -0.000451   0.650389   0.000771
   49  H 11  S   -0.247164  -0.695440   0.189148  -0.294217   0.176744
   50  H 12  S   -0.305992   0.059677   0.781393  -0.410517   0.211767
   51  H 13  S    0.288263   0.040497  -0.198058   0.043043   0.608997
   52  H 14  S    0.288238  -0.040214   0.198321   0.045254  -0.608791

                     51         52
                    0.6313   106.5781
                     A          A   
    1  C  1  S    0.017624   0.000040
    2  C  1  S   -0.114216   0.000925
    3  C  1  X    0.170871   0.000027
    4  C  1  Y   -0.161769  -0.000586
    5  C  1  Z   -0.538489   0.000137
    6  C  2  S   -0.008303   0.000006
    7  C  2  S    0.045376   0.000770
    8  C  2  X   -0.341581  -0.001220
    9  C  2  Y    0.017469  -0.000007
   10  C  2  Z    0.850730   0.000142
   11  C  3  S    0.017597   0.000040
   12  C  3  S   -0.114044   0.000926
   13  C  3  X    0.168401   0.000016
   14  C  3  Y    0.138138   0.000593
   15  C  3  Z   -0.545632   0.000110
   16  C  4  S    0.003399   0.002752
   17  C  4  S   -0.022982  -0.016083
   18  C  4  X   -0.037304  -0.007229
   19  C  4  Y    0.030696  -0.001962
   20  C  4  Z    0.066288   0.016197
   21  BR 5  S   -0.000408  -0.515286
   22  BR 5  S    0.001513   0.031781
   23  BR 5  X    0.000179  -0.000401
   24  BR 5  Y    0.000082   0.000018
   25  BR 5  Z    0.003326   0.000881
   26  BR 5  S   -0.005645  48.070612
   27  BR 5  X   -0.000561   0.001261
   28  BR 5  Y   -0.000251  -0.000055
   29  BR 5  Z   -0.010095  -0.002769
   30  BR 5 XX    0.000620 -21.514965
   31  BR 5 YY    0.001486 -21.514960
   32  BR 5 ZZ    0.002842 -21.514687
   33  BR 5 XY   -0.000031  -0.000004
   34  BR 5 XZ   -0.000873  -0.000181
   35  BR 5 YZ    0.000031   0.000006
   36  BR 5  S    0.023143   0.150994
   37  BR 5  X    0.000040  -0.006686
   38  BR 5  Y    0.001074   0.000295
   39  BR 5  Z    0.044058   0.014719
   40  C  6  S    0.003429   0.002752
   41  C  6  S   -0.023180  -0.016084
   42  C  6  X   -0.036283  -0.007270
   43  C  6  Y   -0.027569   0.002611
   44  C  6  Z    0.067910   0.016088
   45  H  7  S   -0.338352  -0.000880
   46  H  8  S    0.449749  -0.000830
   47  H  9  S   -0.594621  -0.000553
   48  H 10  S    0.671366  -0.002006
   49  H 11  S    0.449682  -0.000830
   50  H 12  S   -0.338130  -0.000881
   51  H 13  S    0.012259  -0.000106
   52  H 14  S    0.011755  -0.000105
 ...... END OF RHF CALCULATION ......
 STEP CPU TIME =     0.16 TOTAL CPU TIME =          0.4 (      0.0 MIN)
 TOTAL WALL CLOCK TIME=          0.4 SECONDS, CPU UTILIZATION IS    92.68%

     ----------------------------------------------------------------
     PROPERTY VALUES FOR THE RHF   SELF-CONSISTENT FIELD WAVEFUNCTION
     ----------------------------------------------------------------

          -----------------
          ENERGY COMPONENTS
          -----------------

         WAVEFUNCTION NORMALIZATION =       1.0000000000

                ONE ELECTRON ENERGY =   -4661.9017396464
                TWO ELECTRON ENERGY =    1491.8266380454
           NUCLEAR REPULSION ENERGY =     432.5969303398
                                      ------------------
                       TOTAL ENERGY =   -2737.4781712613

 ELECTRON-ELECTRON POTENTIAL ENERGY =    1491.8266380454
  NUCLEUS-ELECTRON POTENTIAL ENERGY =   -7371.1002060969
   NUCLEUS-NUCLEUS POTENTIAL ENERGY =     432.5969303398
                                      ------------------
             TOTAL POTENTIAL ENERGY =   -5446.6766377117
               TOTAL KINETIC ENERGY =    2709.1984664505
                 VIRIAL RATIO (V/T) =       2.0104384028

          ---------------------------------------
          MULLIKEN AND LOWDIN POPULATION ANALYSES
          ---------------------------------------

     ATOMIC MULLIKEN POPULATION IN EACH MOLECULAR ORBITAL

                      1          2          3          4          5

                  2.000000   2.000000   2.000000   2.000000   2.000000

    1             0.000000  -0.000000  -0.000000  -0.000000   0.000000
    2            -0.000000   0.000000   0.000000  -0.000000   0.000000
    3             0.000000  -0.000000  -0.000000  -0.000000   0.000000
    4            -0.000000   0.000043   0.000001   0.000000   0.000000
    5             2.000000   1.999915   1.999998   2.000000   2.000000
    6            -0.000000   0.000043   0.000001   0.000000   0.000000
    7            -0.000000   0.000000   0.000000   0.000000   0.000000
    8            -0.000000   0.000000   0.000000   0.000000   0.000000
    9            -0.000000   0.000000   0.000000  -0.000000   0.000000
   10            -0.000000   0.000000   0.000000   0.000000   0.000000
   11            -0.000000   0.000000   0.000000   0.000000   0.000000
   12            -0.000000   0.000000   0.000000   0.000000   0.000000
   13             0.000000   0.000000  -0.000000  -0.000000  -0.000000
   14             0.000000   0.000000  -0.000000  -0.000000  -0.000000

                      6          7          8          9         10

                  2.000000   2.000000   2.000000   2.000000   2.000000

    1            -0.000408  -0.000306   1.065404   0.937979  -0.000676
    2            -0.000002   0.000000  -0.000514  -0.000803   2.003303
    3            -0.000347  -0.000367   0.937792   1.065591  -0.000676
    4             1.086725   0.915097  -0.000414  -0.000389  -0.000001
    5            -0.000377  -0.000056   0.000000  -0.000000  -0.000000
    6             0.915353   1.086470  -0.000363  -0.000440  -0.000001
    7            -0.000000   0.000000  -0.000503  -0.000457   0.000001
    8            -0.000001  -0.000001  -0.000511  -0.000454   0.000000
    9            -0.000000  -0.000000   0.000000   0.000003  -0.000973
   10             0.000000   0.000000   0.000000   0.000002  -0.000979
   11            -0.000001  -0.000001  -0.000449  -0.000515   0.000000
   12            -0.000000   0.000000  -0.000442  -0.000518   0.000001
   13            -0.000509  -0.000381   0.000001   0.000000  -0.000000
   14            -0.000433  -0.000457   0.000001   0.000000  -0.000000

                     11         12         13         14         15

                  2.000000   2.000000   2.000000   2.000000   2.000000

    1            -0.000000   0.000000   0.000000  -0.000000  -0.000004
    2            -0.000000  -0.000000   0.000000  -0.000001  -0.000000
    3            -0.000000   0.000000   0.000000  -0.000000  -0.000004
    4            -0.000294  -0.000457  -0.000116  -0.000019   0.000595
    5             2.000590   2.000913   2.000234   2.000042   1.998823
    6            -0.000294  -0.000457  -0.000116  -0.000019   0.000595
    7            -0.000000  -0.000000  -0.000000  -0.000000  -0.000000
    8            -0.000000  -0.000000  -0.000000  -0.000000   0.000000
    9            -0.000000  -0.000000  -0.000000  -0.000000  -0.000000
   10            -0.000001  -0.000000  -0.000000  -0.000001  -0.000000
   11            -0.000000  -0.000000  -0.000000  -0.000000   0.000000
   12            -0.000000  -0.000000  -0.000000  -0.000000  -0.000000
   13            -0.000001   0.000000  -0.000000  -0.000000  -0.000003
   14            -0.000001   0.000000  -0.000000  -0.000000  -0.000003

                     16         17         18         19         20

                  2.000000   2.000000   2.000000   2.000000   2.000000

    1            -0.000004  -0.000003  -0.000000  -0.000001   0.151350
    2             0.000000   0.000000  -0.000000   0.000000   0.083244
    3            -0.000004  -0.000003  -0.000000  -0.000001   0.151340
    4             0.000440   0.000069   0.000012   0.000077   0.580993
    5             1.999136   1.999871   1.999975   1.999850   0.350988
    6             0.000440   0.000069   0.000012   0.000077   0.580996
    7             0.000000   0.000000   0.000000   0.000000   0.007202
    8             0.000000   0.000000   0.000000   0.000000   0.007977
    9             0.000000   0.000000  -0.000000  -0.000000   0.003041
   10             0.000000   0.000000   0.000000   0.000001   0.005070
   11             0.000000   0.000000   0.000000   0.000000   0.007973
   12             0.000000   0.000000   0.000000   0.000000   0.007202
   13            -0.000004  -0.000002   0.000000  -0.000001   0.031313
   14            -0.000004  -0.000002   0.000000  -0.000001   0.031311

                     21         22         23         24         25

                  2.000000   2.000000   2.000000   2.000000   2.000000

    1             0.303114   0.473719   0.054898   0.254807   0.206126
    2             0.518381   0.068726   0.217547   0.432248   0.090405
    3             0.302887   0.473915   0.054900   0.254157   0.206787
    4             0.126756   0.304723   0.241489   0.188911   0.404421
    5             0.375382   0.014705   1.002605   0.139414   0.055058
    6             0.126751   0.304670   0.241561   0.188521   0.404793
    7             0.026894   0.071355   0.000666   0.065914   0.052115
    8             0.034111   0.067481   0.001712   0.061364   0.044417
    9             0.054010   0.000000   0.041048   0.126032   0.000000
   10             0.052612   0.000000   0.055057   0.129478   0.000000
   11             0.034074   0.067495   0.001715   0.061068   0.044701
   12             0.026863   0.071378   0.000664   0.065596   0.052440
   13             0.009079   0.040931   0.043056   0.016408   0.219215
   14             0.009086   0.040902   0.043083   0.016082   0.219522

                     26         27         28         29         30

                  2.000000   2.000000   2.000000   2.000000   2.000000

    1             0.137390   0.356146   0.254100   0.478437   0.359383
    2             0.091799   0.380112   0.090769   0.025454   0.034286
    3             0.137374   0.355941   0.253859   0.478529   0.359709
    4             0.486143   0.072276   0.352036   0.074575   0.387478
    5             0.069918   0.100041   0.272313   0.112713   0.001908
    6             0.486124   0.072266   0.352083   0.074458   0.387633
    7             0.032184   0.106822   0.106522   0.108984   0.094597
    8             0.033956   0.108511   0.029811   0.258037   0.006745
    9             0.040994   0.067354   0.025411   0.000000   0.000000
   10             0.005425   0.158568   0.011861   0.000000   0.000000
   11             0.033973   0.108432   0.029618   0.258257   0.006774
   12             0.032167   0.106751   0.106653   0.108798   0.094719
   13             0.206278   0.003389   0.057414   0.010911   0.133430
   14             0.206274   0.003390   0.057550   0.010848   0.133338

                     31         32         33         34         35

                  2.000000   2.000000   2.000000   2.000000   2.000000

    1             0.182403   0.104760   0.515370   0.160422   0.074572
    2             0.694178   0.495944   0.645904   0.189520   0.019618
    3             0.182331   0.104566   0.515617   0.160424   0.074619
    4             0.178639   0.255396   0.013862   0.170338   0.122978
    5             0.129769   0.310868   0.031753   0.514145   1.428420
    6             0.178566   0.255450   0.013857   0.170293   0.123002
    7             0.001750   0.000074   0.120871   0.085827   0.001150
    8             0.000673   0.044957   0.005350   0.119968   0.054621
    9             0.431708   0.020102   0.000000   0.077915   0.000000
   10             0.001792   0.337925   0.000000   0.145305   0.000000
   11             0.000671   0.044945   0.005387   0.119928   0.054681
   12             0.001749   0.000066   0.120842   0.085896   0.001159
   13             0.007888   0.012462   0.005589   0.000009   0.022581
   14             0.007881   0.012484   0.005597   0.000009   0.022599

                     36

                  2.000000

    1             0.033875
    2             0.026051
    3             0.033893
    4             0.030259
    5             1.803949
    6             0.030270
    7             0.000350
    8             0.002882
    9             0.004222
   10             0.005836
   11             0.002893
   12             0.000349
   13             0.012589
   14             0.012584

               ----- POPULATIONS IN EACH AO -----
                             MULLIKEN      LOWDIN
              1  C  1  S      1.99213     1.98521
              2  C  1  S      1.19117     1.03756
              3  C  1  X      0.84262     0.89968
              4  C  1  Y      1.01400     1.03844
              5  C  1  Z      1.06293     1.07494
              6  C  2  S      1.99212     1.98512
              7  C  2  S      1.18679     1.03434
              8  C  2  X      1.01000     1.03418
              9  C  2  Y      0.88396     0.93159
             10  C  2  Z      1.03330     1.05336
             11  C  3  S      1.99213     1.98521
             12  C  3  S      1.19119     1.03758
             13  C  3  X      0.84144     0.89871
             14  C  3  Y      1.01387     1.03848
             15  C  3  Z      1.06420     1.07583
             16  C  4  S      1.99320     1.98652
             17  C  4  S      1.26471     1.12825
             18  C  4  X      1.03354     1.04358
             19  C  4  Y      0.98336     1.02078
             20  C  4  Z      0.71783     0.74462
             21  BR 5  S      2.00078     1.99917
             22  BR 5  S      1.99668     1.99262
             23  BR 5  X      1.99996     1.99975
             24  BR 5  Y      1.99991     1.99946
             25  BR 5  Z      1.99981     1.99886
             26  BR 5  S      1.96895     0.79702
             27  BR 5  X      1.99761     1.99569
             28  BR 5  Y      1.99494     1.99043
             29  BR 5  Z      1.98895     1.98004
             30  BR 5 XX      1.34437     1.73670
             31  BR 5 YY      1.34433     1.73675
             32  BR 5 ZZ      1.34395     1.73688
             33  BR 5 XY      1.99989     1.99989
             34  BR 5 XZ      1.99971     1.99972
             35  BR 5 YZ      1.99949     1.99950
             36  BR 5  S      1.95493     1.92044
             37  BR 5  X      1.84572     1.84773
[...]
  6   C            X -0.05782743  0.06824335  0.06120970  0.06684035  0.02409644
                   Y  0.00934853 -0.06151376 -0.13108761 -0.01400326 -0.02469681
                   Z -0.01220760  0.02136601  0.00226203  0.01762162 -0.00121871
  7   H            X  0.15231865  0.27878220  0.10912437 -0.23264167 -0.03865320
                   Y -0.05710438 -0.05382973 -0.07144155  0.05817245  0.10866769
                   Z  0.04642171  0.06496085  0.02343805 -0.06330474 -0.06170410
  8   H            X -0.11215628  0.14419510  0.20173574 -0.32980433  0.10200997
                   Y  0.13601560  0.01767915 -0.05237763  0.13480345  0.00062944
                   Z -0.05259458  0.01452281  0.07021920 -0.08359712  0.02588010
  9   H            X -0.00508410  0.00013764  0.08673796 -0.00228229 -0.00339082
                   Y  0.60451920 -0.00818843  0.00179946  0.26165590  0.38204826
                   Z -0.01431989  0.00024996  0.05772401 -0.00631450 -0.00922959
 10   H            X  0.00313517  0.00277715 -0.01528720  0.00149444 -0.00533711
                   Y -0.43223248 -0.31463890  0.00046591 -0.17452391  0.60117388
                   Z  0.01012277  0.00761115  0.01001067  0.00422182 -0.01454908
 11   H            X  0.11261218 -0.14415613  0.19998482  0.32742765 -0.10184053
                   Y  0.14181544  0.01449921  0.05895943  0.14462314 -0.00241682
                   Z  0.04657036 -0.01523419  0.06735638  0.07697935 -0.02581605
 12   H            X -0.15372637 -0.27769273  0.10746172  0.23129103  0.03691591
                   Y -0.06312582 -0.06186710  0.07430651  0.06533946  0.11225605
                   Z -0.04436183 -0.06219767  0.01981662  0.06023315  0.05640959
 13   H            X -0.04405582  0.22031229 -0.13863351  0.02949487  0.08497226
                   Y -0.16153591  0.38585796 -0.12334451  0.15835440  0.12029240
                   Z -0.00933179  0.03231682 -0.00358489  0.00742921 -0.00339375
 14   H            X  0.04742920 -0.22713102 -0.14063053 -0.03300091 -0.08698545
                   Y -0.16026912  0.37988800  0.11991537  0.15781230  0.11868959
                   Z  0.01661078 -0.05083020 -0.00938138 -0.01510009 -0.00236464

 TRANS. SAYVETZ    X  0.00000003 -0.00000008 -0.00000267  0.00000007 -0.00000004
                   Y  0.00000082  0.00000156  0.00000038  0.00000104 -0.00000105
                   Z -0.00000006 -0.00000014  0.00000264  0.00000026  0.00000001
               TOTAL  0.00000083  0.00000157  0.00000377  0.00000107  0.00000105

   ROT. SAYVETZ    X -0.00362149 -0.00204490  0.00001185 -0.00087462  0.00162609
                   Y  0.00005127  0.00000779  0.00043425  0.00003761 -0.00009599
                   Z -0.00198543  0.00175943 -0.00013495 -0.00263642 -0.00184803
               TOTAL  0.00413034  0.00269764  0.00045489  0.00277796  0.00246346

                           31          32          33          34          35
       FREQUENCY:      1631.38     1756.08     1758.86     1803.15     3609.34  
        SYMMETRY:         A           A           A           A           A   
    REDUCED MASS:      1.82193     1.10125     1.08695     1.10654     1.06762
    IR INTENSITY:      0.56880     0.26487     0.01731     0.10187     0.47970

  1   C            X -0.07670464 -0.01806563  0.01414549  0.00054825 -0.01357908
                   Y  0.04746514 -0.05721026  0.05067077 -0.01658611 -0.03563177
                   Z -0.02845497  0.01656575 -0.01533533  0.00420524  0.01908207
  2   C            X  0.03494510 -0.00004857 -0.00503734 -0.07440470 -0.00050754
                   Y  0.00062941  0.01286770  0.00003400 -0.00174012  0.00317687
                   Z  0.01061814 -0.00023152 -0.00537254 -0.04441485 -0.00001788
  3   C            X -0.07602181  0.01858798  0.01567045  0.00024610  0.01911222
                   Y -0.05023264 -0.05590326 -0.05295483  0.01679974 -0.04847320
                   Z -0.02612330 -0.01334916 -0.01330949  0.00340246 -0.02321678
  4   C            X -0.01245023  0.00096704  0.00292463  0.00113748 -0.00138944
                   Y -0.10185392 -0.00139653  0.01241718  0.00266798  0.00135393
                   Z  0.01235336  0.00354661 -0.00219413 -0.00039032 -0.00015757
  5   BR           X  0.00071364  0.00000250 -0.00020752 -0.00010784 -0.00001505
                   Y -0.00003027  0.00009813  0.00001083  0.00000017  0.00011412
                   Z -0.00153649 -0.00000992  0.00045685  0.00004846  0.00000816
  6   C            X -0.01420128 -0.00104440  0.00311507  0.00118402  0.00196425
                   Y  0.10210484 -0.00116981 -0.01250152 -0.00266184  0.00223056
                   Z  0.00745613 -0.00341626 -0.00170365 -0.00026162  0.00048815
  7   H            X  0.32219456  0.17239273 -0.16712577  0.00778483  0.01863840
                   Y -0.06938474  0.23812631 -0.23089537  0.04382606  0.26736942
                   Z  0.08812476 -0.38606965  0.36762630 -0.07670192  0.20881240
  8   H            X  0.28353706  0.08580451 -0.08055129 -0.00044796  0.13982266
                   Y -0.06461650  0.42537586 -0.40904736  0.07548405  0.13064663
                   Z  0.05235047  0.19922562 -0.18816850  0.02975257 -0.42689797
  9   H            X  0.06333335 -0.00042166  0.04794276  0.20660832  0.00589885
                   Y  0.00221261 -0.03665833  0.00263004  0.01696008 -0.00168812
                   Z  0.06664091 -0.00088493  0.11553301  0.62420905 -0.00221196
 10   H            X  0.05963036 -0.00183693  0.12984109  0.65083360  0.00068549
                   Y  0.00056589 -0.01823528  0.00042817  0.00337215  0.00611218
                   Z  0.01268153  0.00071470 -0.01786577 -0.10071308  0.00357670
 11   H            X  0.28304247 -0.09029005 -0.09069113  0.00089297 -0.19025384
                   Y  0.07235731  0.40030867  0.41127805 -0.07411461  0.19885447
                   Z  0.04923855 -0.21266788 -0.21486172  0.03346340  0.56172759
 12   H            X  0.32134311 -0.17111924 -0.17713594  0.00866971 -0.03125901
                   Y  0.07937068  0.24527832  0.25363491 -0.04745444  0.34109174
                   Z  0.08464660  0.36221079  0.36811299 -0.07463459 -0.29490203
 13   H            X  0.16423899 -0.00958593 -0.00665228 -0.00846520  0.01528492
                   Y  0.12798314 -0.01888775 -0.00018363 -0.00781047 -0.01103270
                   Z  0.02405044  0.00316578 -0.00731679  0.00361369  0.00909040
 14   H            X  0.16653532  0.01014055 -0.00632538 -0.00860808 -0.02432214
                   Y -0.12364713 -0.01882516 -0.00089777  0.00782687 -0.01937259
                   Z  0.03013926 -0.00201228 -0.00738438  0.00323563 -0.01432637

 TRANS. SAYVETZ    X -0.00000026 -0.00000005  0.00000049 -0.00000040  0.00000002
                   Y  0.00000028  0.00000003  0.00000002  0.00000008 -0.00000022
                   Z -0.00000105 -0.00000006 -0.00000031  0.00000042  0.00000011
               TOTAL  0.00000112  0.00000008  0.00000059  0.00000059  0.00000025

   ROT. SAYVETZ    X  0.00004922  0.00022404 -0.00001646  0.00000018  0.00052427
                   Y -0.00056549 -0.00000253  0.00005871  0.00017231  0.00003354
                   Z -0.00018677  0.00040240 -0.00000175  0.00000345  0.00014941
               TOTAL  0.00059756  0.00046057  0.00006100  0.00017235  0.00054617

                           36          37          38          39          40
       FREQUENCY:      3610.84     3639.59     3670.78     3684.20     3724.86  
        SYMMETRY:         A           A           A           A           A   
    REDUCED MASS:      1.06836     1.06935     1.09666     1.10151     1.11012
    IR INTENSITY:      0.39245     0.13366     1.36646     1.86978     0.09859

  1   C            X  0.01852979  0.00087067  0.00275959  0.00328679  0.00545816
                   Y  0.04764327 -0.00243117  0.00077886  0.00195157 -0.02321190
                   Z -0.02568708  0.00418844 -0.00158781 -0.00425343 -0.04882770
  2   C            X -0.00348106 -0.05729522 -0.00000573  0.00199351  0.00072734
                   Y -0.00048042 -0.00156281  0.00000025  0.00009901  0.00084995
                   Z  0.00032764 -0.04349097 -0.00000706  0.00338989 -0.00042931
  3   C            X  0.01459542  0.00083562 -0.00278445  0.00330894 -0.00672544
                   Y -0.03630571  0.00261265  0.00080154 -0.00206280 -0.02869722
                   Z -0.01751969  0.00406109  0.00156870 -0.00417492  0.06748457
  4   C            X  0.00243943 -0.00149986 -0.04315750 -0.04206455  0.00099793
                   Y -0.00313300  0.00111258  0.02989791  0.03486011  0.00027970
                   Z  0.00161061 -0.00102147 -0.03002659 -0.02930107  0.00039862
  5   BR           X -0.00009709  0.00002829  0.00000246 -0.00009281  0.00000907
                   Y -0.00001541  0.00000047 -0.00025143  0.00000966 -0.00005100
                   Z  0.00007562  0.00000742  0.00000505  0.00045758 -0.00000069
  6   C            X  0.00189280 -0.00147943  0.04277268 -0.04124031 -0.00200895
                   Y  0.00272271 -0.00118677  0.03222934 -0.03684205 -0.00026589
                   Z  0.00136751 -0.00096731  0.02865543 -0.02745692 -0.00090218
  7   H            X -0.02560651 -0.00145886 -0.00089456  0.00096956  0.02568463
                   Y -0.35107173  0.00029443 -0.00275743  0.00257374  0.36135286
                   Z -0.27539819  0.00126083 -0.00236226  0.00190829  0.27736896
  8   H            X -0.18686667  0.01492039 -0.01083816 -0.01933442 -0.09658355
                   Y -0.17506738  0.00864685 -0.00951760 -0.01792829 -0.09306630
                   Z  0.57188183 -0.03572925  0.02832030  0.05547918  0.29816913
  9   H            X  0.04244731  0.57120020  0.00004087 -0.00642229 -0.00744226
                   Y  0.00022564 -0.00088087 -0.00102053  0.00002969  0.00156816
                   Z -0.01633508 -0.24680877  0.00000939  0.00369307  0.00309264
 10   H            X  0.00526957  0.05450877  0.00000843 -0.00276459 -0.00054299
                   Y -0.00015059  0.01818959 -0.00021941 -0.00098447 -0.00374740
                   Z  0.02759375  0.73115676  0.00009538 -0.03962868  0.00007220
 11   H            X -0.14243967  0.01499485  0.01108025 -0.01964058  0.13225135
                   Y  0.14927073 -0.01000333 -0.01074548  0.02021414 -0.14220827
                   Z  0.42153504 -0.03498642 -0.02798258  0.05444551 -0.39458193
 12   H            X -0.02384156 -0.00147909  0.00092572  0.00105129 -0.04355215
                   Y  0.25079168  0.00002098 -0.00249323 -0.00282636  0.47063698
                   Z -0.21779367  0.00103416  0.00238192  0.00234416 -0.39990925
 13   H            X -0.03610013  0.02136320  0.47701703  0.47570538 -0.00728118
                   Y  0.02756085 -0.01445034 -0.34350299 -0.34439276  0.00536497
                   Z -0.02351812  0.01375030  0.32217692  0.32004458 -0.00368619
 14   H            X -0.02981053  0.02109632 -0.47258609  0.46732928  0.01522262
                   Y -0.02474128  0.01547627 -0.36861313  0.36630155  0.01188025
                   Z -0.01879169  0.01303490 -0.30639717  0.30168171  0.00849179

 TRANS. SAYVETZ    X  0.00000011 -0.00000070 -0.00000014 -0.00000007  0.00000001
                   Y -0.00000004 -0.00000006  0.00000083 -0.00000009 -0.00000027
                   Z  0.00000084 -0.00000013 -0.00000021 -0.00000048  0.00000005
               TOTAL  0.00000085  0.00000071  0.00000087  0.00000050  0.00000027

   ROT. SAYVETZ    X -0.00006921 -0.00000336  0.00002400 -0.00000851 -0.00000213
                   Y  0.00014660  0.00029979 -0.00000974  0.00007371  0.00000280
                   Z -0.00002418 -0.00000799  0.00001440 -0.00000143  0.00002093
               TOTAL  0.00016391  0.00029991  0.00002964  0.00007421  0.00002122

                           41          42
       FREQUENCY:      3726.36     3753.08  
        SYMMETRY:         A           A   
    REDUCED MASS:      1.11130     1.11228
    IR INTENSITY:      0.52551     0.18873

  1   C            X  0.00692451 -0.00029949
                   Y -0.03270001  0.00036186
                   Z -0.06573191  0.00259996
  2   C            X -0.00497986 -0.05311753
                   Y  0.00015533  0.00135423
                   Z  0.00293257  0.07551421
  3   C            X  0.00460470 -0.00028900
                   Y  0.02211883 -0.00022420
                   Z -0.04956993  0.00256833
  4   C            X  0.00351970  0.00099708
                   Y -0.00147213 -0.00079578
                   Z  0.00174859  0.00069174
  5   BR           X -0.00005740  0.00000467
                   Y -0.00000790 -0.00000041
                   Z  0.00001379 -0.00001971
  6   C            X  0.00304296  0.00098250
                   Y  0.00161811  0.00084519
                   Z  0.00148073  0.00065213
  7   H            X  0.03570416  0.00004517
                   Y  0.49187980 -0.01552150
                   Z  0.37861530 -0.01162094
  8   H            X -0.12742821  0.00726754
                   Y -0.12324215  0.01161840
                   Z  0.39455329 -0.02737860
  9   H            X  0.05068233  0.66194832
                   Y  0.00016908 -0.00090043
                   Z -0.02135993 -0.28105292
 10   H            X  0.00367755 -0.04622206
                   Y -0.00057655 -0.01510068
                   Z -0.00189374 -0.60675346
 11   H            X -0.09510742  0.00739095
                   Y  0.10263594 -0.01269585
                   Z  0.28458223 -0.02649040
 12   H            X  0.03285758 -0.00019708
                   Y -0.34910009  0.01464476
                   Z  0.29745450 -0.01211150
 13   H            X -0.02784997 -0.00740754
                   Y  0.01990468  0.00611448
                   Z -0.01813238 -0.00501339
 14   H            X -0.02416399 -0.00729325
                   Y -0.01865188 -0.00647894
                   Z -0.01538897 -0.00470933

 TRANS. SAYVETZ    X -0.00000005 -0.00000011
                   Y  0.00000005 -0.00000000
                   Z -0.00000041 -0.00000001
               TOTAL  0.00000042  0.00000011

   ROT. SAYVETZ    X  0.00000434  0.00000004
                   Y -0.00003091 -0.00005220
                   Z  0.00000394  0.00000059
               TOTAL  0.00003147  0.00005221

 REFERENCE ON SAYVETZ CONDITIONS - A. SAYVETZ, J.CHEM.PHYS., 7, 383-389(1939).

 NOTE - THE MODES J,K ARE ORTHONORMALIZED ACCORDING TO
 SUM ON I   M(I) * (X(I,J)*X(I,K) + Y(I,J)*Y(I,K) + Z(I,J)*Z(I,K)) = DELTA(J,K)

  MODE FREQ(CM**-1)  SYMMETRY  RED. MASS  IR INTENS.
     1       0.036    A       10.506981    0.000000
     2       0.176    A       10.516342    0.000000
     3       0.186    A       10.605747    0.000003
     4       7.527    A        4.969350    0.012439
     5       8.287    A        5.360679    0.043226
     6      12.513    A        3.143106    0.063731
     7     190.061    A        2.441651    0.022277
     8     278.977    A        2.544135    0.216269
     9     295.814    A        2.526578    0.095847
    10     526.328    A        3.996475    1.192766
    11     572.714    A        4.918265    1.264183
    12     738.059    A        2.162462    0.187484
    13     830.396    A        5.213532    0.165125
    14     942.652    A        1.683951    0.221740
    15     989.248    A        1.636911    0.272267
    16    1028.988    A        3.169613    0.018716
    17    1044.883    A        1.596314    0.310038
    18    1078.833    A        1.703299    0.067651
    19    1142.682    A        1.271437    0.054608
    20    1195.964    A        1.193403    0.177634
    21    1208.006    A        1.346753    0.152324
    22    1236.453    A        1.343075    0.011231
    23    1307.182    A        1.497400    0.256990
    24    1350.933    A        1.143691    0.267555
    25    1446.700    A        1.214291    0.150055
    26    1451.805    A        1.320171    0.015325
    27    1495.377    A        1.365897    0.025969
    28    1557.626    A        3.612546    0.140923
    29    1576.543    A        1.724429    0.131418
    30    1627.740    A        1.563081    0.000232
    31    1631.377    A        1.821931    0.568803
    32    1756.084    A        1.101252    0.264870
    33    1758.857    A        1.086946    0.017313
    34    1803.152    A        1.106542    0.101870
    35    3609.339    A        1.067622    0.479695
    36    3610.838    A        1.068362    0.392449
    37    3639.592    A        1.069347    0.133663
    38    3670.782    A        1.096662    1.366463
    39    3684.199    A        1.101511    1.869778
    40    3724.857    A        1.110123    0.098592
    41    3726.360    A        1.111299    0.525511
    42    3753.081    A        1.112283    0.188727

     -------------------------------
     THERMOCHEMISTRY AT T=  298.15 K
     -------------------------------

 USING IDEAL GAS, RIGID ROTOR, HARMONIC NORMAL MODE APPROXIMATIONS.
 P=  1.01325E+05 PASCAL.
 ALL FREQUENCIES ARE SCALED BY   1.00000
 THE MOMENTS OF INERTIA ARE (IN AMU*BOHR**2)
            389.62401          1001.09707          1093.66748
 THE ROTATIONAL SYMMETRY NUMBER IS  1.0
 THE ROTATIONAL CONSTANTS ARE (IN GHZ)
      4.62776     1.80111     1.64866
      7 -     42 VIBRATIONAL MODES ARE USED IN THERMOCHEMISTRY.
 THE HARMONIC ZERO POINT ENERGY IS (SCALED BY   1.000)
        0.140067 HARTREE/MOLECULE    30741.240082 CM**-1/MOLECULE 
       87.893704 KCAL/MOL              367.747258 KJ/MOL

               Q               LN Q
 ELEC.     1.00000E+00       0.000000
 TRANS.    7.00398E+07      18.064575
 ROT.      2.33800E+05      12.362222
 VIB.      3.81675E+00       1.339400
 TOT.      6.25006E+13      31.766197

              E         H         G         CV        CP        S
           KJ/MOL    KJ/MOL    KJ/MOL   J/MOL-K   J/MOL-K   J/MOL-K
 ELEC.      0.000     0.000     0.000     0.000     0.000     0.000
 TRANS.     3.718     6.197   -44.781    12.472    20.786   170.982
 ROT.       3.718     3.718   -30.645    12.472    12.472   115.256
 VIB.     373.779   373.779   364.427    51.694    51.694    31.366
 TOTAL    381.216   383.695   289.001    76.637    84.952   317.605
 VIB. THERMAL CORRECTION E(T)-E(0) = H(T)-H(0) =      6031.529 J/MOL

              E         H         G         CV        CP        S
         KCAL/MOL  KCAL/MOL  KCAL/MOL CAL/MOL-K CAL/MOL-K CAL/MOL-K
 ELEC.      0.000     0.000     0.000     0.000     0.000     0.000
 TRANS.     0.889     1.481   -10.703     2.981     4.968    40.866
 ROT.       0.889     0.889    -7.324     2.981     2.981    27.547
 VIB.      89.335    89.335    87.100    12.355    12.355     7.497
 TOTAL     91.113    91.705    69.073    18.317    20.304    75.909
 VIB. THERMAL CORRECTION E(T)-E(0) = H(T)-H(0) =      1441.570 CAL/MOL
 ......END OF NORMAL COORDINATE ANALYSIS......
 STEP CPU TIME =     0.01 TOTAL CPU TIME =         26.4 (      0.4 MIN)
 TOTAL WALL CLOCK TIME=         26.6 SECONDS, CPU UTILIZATION IS    99.47%
               580000  WORDS OF DYNAMIC MEMORY USED
 EXECUTION OF GAMESS TERMINATED NORMALLY Sat Nov 13 22:22:36 2021
 DDI: 263640 bytes (0.3 MB / 0 MWords) used by master data server.

 ----------------------------------------
 CPU timing information for all processes
 ========================================
 0: 26.102 + 0.330 = 26.433
 ----------------------------------------
 ddikick.x: exited gracefully.
----- accounting info -----
Files used on the master node chemcompute-node-0.novalocal were:
-rw-r--r--. 1 chemcomp chemcomp     1112 Nov 13 22:22 /scratch/306220/342122.F05
-rw-rw-r--. 1 chemcomp chemcomp  9540848 Nov 13 22:22 /scratch/306220/342122.F08
-rw-rw-r--. 1 chemcomp chemcomp 70451200 Nov 13 22:22 /scratch/306220/342122.F10
-rw-rw-r--. 1 chemcomp chemcomp   463344 Nov 13 22:22 /scratch/306220/342122.F18
Sat Nov 13 22:22:39 UTC 2021
0.136u 0.082s 0:30.36 0.6%	0+0k 8+216io 0pf+0w
Finishing Up...
Looking for IR data...
Looking for Raman data...
vibramans not found
Looking for thermodynamics data...
Looking for UV-Vis data...
306220
