----- GAMESS execution script 'rungms' -----
This job is running on host chemcompute-node-0.novalocal
under operating system Linux at Sat Nov 13 21:43:13 UTC 2021
SLURM has assigned the following compute nodes to this run:
chemcompute-node-0
Available scratch disk space (Kbyte units) at beginning of the job is
Filesystem     1K-blocks     Used Available Use% Mounted on
/dev/sda1       62903276 17082268  45821008  28% /
GAMESS temporary binary files will be written to /scratch/306198
GAMESS supplementary output files will be written to /data/slurm/342100
Copying input file 342100.inp to your run's scratch directory...
The generated host list is
chemcompute-node-0.novalocal

 Distributed Data Interface kickoff program.
 Initiating 1 compute processes on 1 nodes to run the following command:
 /data/gamess-2019R1-ddi/gamess.00.x 342100 

          ******************************************************
          *         GAMESS VERSION = 30 JUN 2019 (R1)          *
          *             FROM IOWA STATE UNIVERSITY             *
          * M.W.SCHMIDT, K.K.BALDRIDGE, J.A.BOATZ, S.T.ELBERT, *
          *   M.S.GORDON, J.H.JENSEN, S.KOSEKI, N.MATSUNAGA,   *
          *          K.A.NGUYEN, S.J.SU, T.L.WINDUS,           *
          *       TOGETHER WITH M.DUPUIS, J.A.MONTGOMERY       *
          *         J.COMPUT.CHEM.  14, 1347-1363(1993)        *
          **************** 64 BIT LINUX VERSION ****************

  SINCE 1993, STUDENTS AND POSTDOCS WORKING AT IOWA STATE UNIVERSITY
  AND ALSO IN THEIR VARIOUS JOBS AFTER LEAVING ISU HAVE MADE IMPORTANT
  CONTRIBUTIONS TO THE CODE:
     IVANA ADAMOVIC, CHRISTINE AIKENS, YURI ALEXEEV, POOJA ARORA,
     ANDREY ASADCHEV, ROB BELL, PRADIPTA BANDYOPADHYAY, JONATHAN BENTZ,
     COLLEEN BERTONI, BRETT BODE, KURT BRORSEN, CALEB CARLIN, GALINA CHABAN,
     WEI CHEN, CHEOL HO CHOI, PAUL DAY, ALBERT DEFUSCO, NUWAN DESILVA,
     TIM DUDLEY, DMITRI FEDOROV, ALEX FINDLATER, GRAHAM FLETCHER, 
     MARK FREITAG, KURT GLAESEMANN, ANASTASIA GUNINA,
     DAN KEMP, GRANT MERRILL, NORIYUKI MINEZAWA, JONATHAN MULLIN,
     TAKESHI NAGATA, SEAN NEDD, HEATHER NETZLOFF, BOSILJKA NJEGIC, RYAN OLSON,
     MIKE PAK, BUU PHAM,
     SPENCER PRUITT, LUKE ROSKOP, JIM SHOEMAKER, LYUDMILA SLIPCHENKO,
     TONY SMITH, SAROM SOK LEANG, JIE SONG, TETSUYA TAKETSUGU, SIMON WEBB,
     PENG XU, SOOHAENG YOO, FEDERICO ZAHARIEV

  ADDITIONAL CODE HAS BEEN PROVIDED BY COLLABORATORS IN OTHER GROUPS:
     IOWA STATE UNIVERSITY:
          JOE IVANIC, AARON WEST, LAIMUTIS BYTAUTAS, KLAUS RUEDENBERG
     UNIVERSITY OF TOKYO: KIMIHIKO HIRAO, TAKAHITO NAKAJIMA,
          TAKAO TSUNEDA, MUNEAKI KAMIYA, SUSUMU YANAGISAWA,
          KIYOSHI YAGI, MAHITO CHIBA, SEIKEN TOKURA, NAOAKI KAWAKAMI
     UNIVERSITY OF AARHUS: FRANK JENSEN
     UNIVERSITY OF IOWA: VISVALDAS KAIRYS, HUI LI
     NATIONAL INST. OF STANDARDS AND TECHNOLOGY: WALT STEVENS, DAVID GARMER
     UNIVERSITY OF PISA: BENEDETTA MENNUCCI, JACOPO TOMASI
     UNIVERSITY OF MEMPHIS: HENRY KURTZ, PRAKASHAN KORAMBATH
     UNIVERSITY OF ALBERTA: TOBY ZENG, MARIUSZ KLOBUKOWSKI
     UNIVERSITY OF NEW ENGLAND: MARK SPACKMAN
     MIE UNIVERSITY: HIROAKI UMEDA
     NAT. INST. OF ADVANCED INDUSTRIAL SCIENCE AND TECHNOLOGY: KAZUO KITAURA
     MICHIGAN STATE UNIVERSITY:
          KAROL KOWALSKI, MARTA WLOCH, JEFFREY GOUR, JESSE LUTZ,
          WEI LI, JUN SHEN, J. EMILIANO DEUSTUA, PIOTR PIECUCH
     UNIVERSITY OF MINNESOTA:
          YINAN SHU
     UNIVERSITY OF SILESIA: MONIKA MUSIAL, STANISLAW KUCHARSKI
     FACULTES UNIVERSITAIRES NOTRE-DAME DE LA PAIX:
          OLIVIER QUINET, BENOIT CHAMPAGNE
     UNIVERSITY OF CALIFORNIA - SANTA BARBARA: BERNARD KIRTMAN
     INSTITUTE FOR MOLECULAR SCIENCE:
          KAZUYA ISHIMURA, MICHIO KATOUDA, AND SHIGERU NAGASE
     UNIVERSITY OF NOTRE DAME: ANNA POMOGAEVA, DAN CHIPMAN
     KYUSHU UNIVERSITY:
          HARUYUKI NAKANO,
          FENG LONG GU, JACEK KORCHOWIEC, MARCIN MAKOWSKI, AND YURIKO AOKI,
          HIROTOSHI MORI AND EISAKU MIYOSHI
     PENNSYLVANIA STATE UNIVERSITY:
          TZVETELIN IORDANOV, CHET SWALINA, JONATHAN SKONE,
          SHARON HAMMES-SCHIFFER
     WASEDA UNIVERSITY:
          MASATO KOBAYASHI, TOMOKO AKAMA, TSUGUKI TOUMA,
          TAKESHI YOSHIKAWA, YASUHIRO IKABATA, JUNJI SEINO,
          YUYA NAKAJIMA, HIROMI NAKAI
     NANJING UNIVERSITY: SHUHUA LI
     UNIVERSITY OF NEBRASKA:
          PEIFENG SU, DEJUN SI, NANDUN THELLAMUREGE, YALI WANG, HUI LI
     UNIVERSITY OF ZURICH: ROBERTO PEVERATI, KIM BALDRIDGE
     N. COPERNICUS UNIVERSITY AND JACKSON STATE UNIVERSITY:
          MARIA BARYSZ
     UNIVERSITY OF COPENHAGEN: Jimmy Kromann, CASPER STEINMANN
     TOKYO INSTITUTE OF TECHNOLOGY: HIROYA NAKATA
     NAGOYA UNIVERSITY: YOSHIO NISHIMOTO, STEPHAN IRLE
     MOSCOW STATE UNIVERSITY: VLADIMIR MIRONOV
     A.N.NESMEYANOV INSTITUTE OF ORGANOELEMENT COMPOUNDS OF RUSSIAN ACADEMY OF SCIENCES:
          IGOR S. GERASIMOV

 EXECUTION OF GAMESS BEGUN Sat Nov 13 21:43:13 2021

            ECHO OF THE FIRST FEW INPUT CARDS -
 INPUT CARD>!File created by the GAMESS Input Deck Generator Plugin for Avogadro            
 INPUT CARD> $BASIS GBASIS=STO NGAUSS=3 $END                                                
 INPUT CARD> $CONTRL SCFTYP=RHF RUNTYP=IRC NZVAR=1 mult=1  ICHARG=0 $END                    
 INPUT CARD> $STATPT hssend=.t. OPTTOL=0.0005 NSTEP=50 $END                                 
 INPUT CARD> $STATPT HESS=READ ihrep=5 $END                                                 
 INPUT CARD> $FORCE nvib=2 $END                                                             
 INPUT CARD> $ZMAT DLC=.t. auto=.t. nonvdw(1)=17,4,19,5,17,19,5,4 $END                      
 INPUT CARD>!$ZMAT IFZMAT(1)=1,17,4,1,19,5,1,17,19, fvalue(1)=2.08,2.01,1.98 $END           
 INPUT CARD> $irc npoint=50 saddle=.t. tsengy=.t. forwrd=.t. opttol=0.0005 stride=0.2 $end  
 INPUT CARD>                                                                                
 INPUT CARD> $DATA                                                                          
 INPUT CARD>Title                                                                           
 INPUT CARD>C1                                                                              
 INPUT CARD>C     6.0    -0.25397605     1.18583977     0.11529635                          
 INPUT CARD>C     6.0    -1.13683391    -0.09443218     0.16169581                          
 INPUT CARD>C     6.0    -0.16648531    -1.29597986     0.31805751                          
 INPUT CARD>C     6.0     1.18116105     0.67527074    -0.10013091                          
 INPUT CARD>C     6.0     1.21069956    -0.73709011    -0.10319000                          
 INPUT CARD>C     6.0     2.18744636    -1.58876896    -0.91501051                          
 INPUT CARD>H     1.0    -0.33947918     1.75803065     1.03532457                          
 INPUT CARD>H     1.0    -0.55640280     1.83458257    -0.70429343                          
 INPUT CARD>H     1.0    -1.68693936    -0.19559251    -0.77072740                          
 INPUT CARD>H     1.0    -1.86247838    -0.06292989     0.96962255                          
 INPUT CARD>H     1.0    -0.43737876    -2.13111305    -0.32402828                          
 INPUT CARD>H     1.0    -0.13549881    -1.65816283     1.34225166                          
 INPUT CARD>H     1.0     1.82986331     1.22900653    -0.76309210                          
 INPUT CARD>H     1.0     2.31467843    -2.57130909    -0.47051325                          
 INPUT CARD>H     1.0     3.15255380    -1.09749115    -0.98644209                          
 INPUT CARD>H     1.0     1.77729452    -1.70895839    -1.91598499                          
 INPUT CARD>B     5.0     2.02233982     0.22461648     1.33981586                          
 INPUT CARD>H     1.0     3.10538507     0.60072446     1.21130991                          
 INPUT CARD>H     1.0     2.07688546    -0.96867871     1.40072322                          
 INPUT CARD>H     1.0     1.37180400     0.56584388     2.22892547                          
 INPUT CARD> $END                                                                           
 INPUT CARD> $HESS                                                                          
 INPUT CARD>ENERGY IS     -256.3333982065 E(NUC) IS      309.8604851651                     
 INPUT CARD> 1  1 6.45746009E-01-6.59327141E-02 2.12164954E-02-1.66010094E-01-8.75468625E-02
 INPUT CARD> 1  2-1.01646805E-03 1.55368386E-02 1.34780179E-02 2.53941446E-03-2.75797040E-01
 INPUT CARD> 1  3 6.88563322E-02 3.81873421E-02-3.83614077E-03 1.67677571E-02-1.65002135E-03
 INPUT CARD> 1  4-1.01795013E-03-2.62824343E-03 1.22471436E-03-6.95187027E-02 1.46581343E-02
 INPUT CARD> 1  5 2.32955962E-02-1.00963362E-01 6.41596494E-02-7.92130543E-02-7.48562337E-03
 INPUT CARD> 1  6-1.74564931E-02 5.40977640E-03-9.47300559E-03-2.23675859E-02-5.15849022E-03
 INPUT CARD> 1  7-4.72886342E-03 2.41422599E-03-7.22902467E-04-1.22608746E-03-1.45657190E-04
 INPUT CARD> 1  8 7.51526822E-04-9.60535740E-03 1.09180048E-02-4.33171963E-03 7.21943065E-04
 INPUT CARD> 1  9-3.77656455E-04-4.85023750E-04-6.24496014E-05-5.60396056E-05 7.77232545E-05
 INPUT CARD> 1 10 2.03300996E-04-4.67953222E-05-4.40464714E-05-1.18286205E-02 4.76656326E-03
 INPUT CARD> 1 11-4.07223932E-03-2.39261084E-04 4.72085344E-04-6.38445193E-04-3.11799659E-04
 INPUT CARD> 1 12 4.75458573E-04 2.38327118E-03-1.03670065E-04-4.08272221E-04 2.24653725E-03
 INPUT CARD> 2  1-6.59327141E-02 8.11527883E-01 3.11615228E-03-8.34613992E-02-2.31922879E-01
 INPUT CARD> 2  2-9.25654699E-04-9.19735961E-03-3.53140450E-02-3.20716492E-03 5.32941855E-02
    1000000 WORDS OF MEMORY AVAILABLE

     BASIS OPTIONS
     -------------
     GBASIS=STO          IGAUSS=       3      POLAR=NONE    
     NDFUNC=       0     NFFUNC=       0     DIFFSP=       F
     NPFUNC=       0      DIFFS=       F     BASNAM=        


     RUN TITLE
     ---------
 Title                                                                           

 THE POINT GROUP OF THE MOLECULE IS C1      
 THE ORDER OF THE PRINCIPAL AXIS IS     0

 ATOM      ATOMIC                      COORDINATES (BOHR)
           CHARGE         X                   Y                   Z
 C           6.0    -0.4799451419        2.2409122306        0.2178785089
 C           6.0    -2.1483045835       -0.1784509446        0.3055607743
 C           6.0    -0.3146116169       -2.4490468210        0.6010415422
 C           6.0     2.2320707319        1.2760766661       -0.1892199828
 C           6.0     2.2878904219       -1.3928983362       -0.1950008247
 C           6.0     4.1336742332       -3.0023379922       -1.7291191398
 H           1.0    -0.6415226287        3.3221962065        1.9564797457
 H           1.0    -1.0514488308        3.4668583592       -1.3309215977
 H           1.0    -3.1878531483       -0.3696162492       -1.4564635972
 H           1.0    -3.5195737963       -0.1189202485        1.8323209310
 H           1.0    -0.8265260092       -4.0272197134       -0.6123246615
 H           1.0    -0.2560556226       -3.1334733917        2.5364878440
 H           1.0     3.4579402509        2.3224855788       -1.4420349724
 H           1.0     4.3741079824       -4.8590696098       -0.8891411161
 H           1.0     5.9574628436       -2.0739575474       -1.8641052529
 H           1.0     3.3585996423       -3.2294630815       -3.6206866277
 B           5.0     3.8216681139        0.4244635995        2.5318848494
 H           1.0     5.8683268687        1.1352046235        2.2890438161
 H           1.0     3.9247444273       -1.8305373320        2.6469830704
 H           1.0     2.5923336689        1.0692898850        4.2120583854

          INTERNUCLEAR DISTANCES (ANGS.)
          ------------------------------

                1 C          2 C          3 C          4 C          5 C     

   1 C       0.0000000    1.5558558 *  2.4916251 *  1.5384109 *  2.4270703 *
   2 C       1.5558558 *  0.0000000    1.5523344 *  2.4564398 *  2.4482825 *
   3 C       2.4916251 *  1.5523344 *  0.0000000    2.4242238 *  1.5448124 *
   4 C       1.5384109 *  2.4564398 *  2.4242238 *  0.0000000    1.4126730 *
   5 C       2.4270703 *  2.4482825 *  1.5448124 *  1.4126730 *  0.0000000  
   6 C       3.8367342    3.8004182    2.6734204 *  2.6081631 *  1.5291971 *
   7 H       1.0868142 *  2.1978672 *  3.1418751    2.1849428 *  3.1503805  
   8 H       1.0881436 *  2.1927005 *  3.3162717    2.1744297 *  3.1776527  
   9 H       2.1787100 *  1.0873189 *  2.1698123 *  3.0714984    3.0224389  
  10 H       2.2082977 *  1.0864152 *  2.1957554 *  3.3095398    3.3241302  
  11 H       3.3509430    2.2075403 *  1.0877062 *  3.2473976    2.1698460 *
  12 H       3.0996463    2.2003722 *  1.0867890 *  3.0428560    2.1794326 *
  13 H       2.2618170 *  3.3775753    3.3955631    1.0802571 *  2.1643407 *
  14 H       4.5888262    4.2950605    2.8990485 *  3.4586595    2.1721084 *
  15 H       4.2463953    4.5522736    3.5717135    2.7954645 *  2.1635205 *
  16 H       4.0782374    3.9262701    2.9899460 *  3.0556914    2.1334909 *
  17 B       2.7577187 *  3.3867592    2.8543228 *  1.7274599 *  1.9146554 *
  18 H       3.5817472    4.4250824    3.8859391    2.3298224 *  2.6659878 *
  19 H       3.4244981    3.5535177    2.5123701 *  2.3994698 *  1.7509044 *
  20 H       2.7376968 *  3.3170268    3.0796328    2.3394065 *  2.6762575 *

                6 C          7 H          8 H          9 H         10 H     

   1 C       3.8367342    1.0868142 *  1.0881436 *  2.1787100 *  2.2082977 *
   2 C       3.8004182    2.1978672 *  2.1927005 *  1.0873189 *  1.0864152 *
   3 C       2.6734204 *  3.1418751    3.3162717    2.1698123 *  2.1957554 *
   4 C       2.6081631 *  2.1849428 *  2.1744297 *  3.0714984    3.3095398  
   5 C       1.5291971 *  3.1503805    3.1776527    3.0224389    3.3241302  
   6 C       0.0000000    4.6249570    4.3923167    4.1197843    4.7203726  
   7 H       4.6249570    0.0000000    1.7547612 *  2.9823005 *  2.3748138 *
   8 H       4.3923167    1.7547612 *  0.0000000    2.3246800 *  2.8475220 *
   9 H       4.1197843    2.9823005 *  2.3246800 *  0.0000000    1.7542039 *
  10 H       4.7203726    2.3748138 *  2.8475220 *  1.7542039 *  0.0000000  
  11 H       2.7446501 *  4.1210270    3.9856631    2.3467385 *  2.8252120 *
  12 H       3.2397719    3.4360137    4.0699849    3.0017928    2.3803527 *
  13 H       2.8444338 *  2.8670919 *  2.4626095 *  3.7943961    4.2784094  
  14 H       1.0858872 *  5.2967238    5.2639949    4.6633789    5.0808067  
  15 H       1.0853058 *  4.9432620    4.7363513    4.9275398    5.4815193  
  16 H       1.0884025 *  5.0210529    4.4125981    3.9500389    4.9278887  
  17 B       2.8982527 *  2.8323600 *  3.6633710    4.2883237    3.9129961  
  18 H       3.1871196    3.6383263    4.3128450    5.2468053    5.0178200  
  19 H       2.3998663 *  3.6615950    4.3844699    4.4135289    4.0650727  
  20 H       3.8976868    2.4030153 *  3.7324861    4.3512772    3.5272911  

               11 H         12 H         13 H         14 H         15 H     

   1 C       3.3509430    3.0996463    2.2618170 *  4.5888262    4.2463953  
   2 C       2.2075403 *  2.2003722 *  3.3775753    4.2950605    4.5522736  
   3 C       1.0877062 *  1.0867890 *  3.3955631    2.8990485 *  3.5717135  
   4 C       3.2473976    3.0428560    1.0802571 *  3.4586595    2.7954645 *
   5 C       2.1698460 *  2.1794326 *  2.1643407 *  2.1721084 *  2.1635205 *
   6 C       2.7446501 *  3.2397719    2.8444338 *  1.0858872 *  1.0853058 *
   7 H       4.1210270    3.4360137    2.8670919 *  5.2967238    4.9432620  
   8 H       3.9856631    4.0699849    2.4626095 *  5.2639949    4.7363513  
   9 H       2.3467385 *  3.0017928    3.7943961    4.6633789    4.9275398  
  10 H       2.8252120 *  2.3803527 *  4.2784094    5.0808067    5.4815193  
  11 H       0.0000000    1.7582100 *  4.0772009    2.7908868 *  3.7940456  
  12 H       1.7582100 *  0.0000000    4.0780961    3.1817167    4.0679795  
  13 H       4.0772009    4.0780961    0.0000000    3.8422711    2.6855143 *
  14 H       2.7908868 *  3.1817167    3.8422711    0.0000000    1.7721053 *
  15 H       3.7940456    4.0679795    2.6855143 *  1.7721053 *  0.0000000  
  16 H       2.7599490 *  3.7785532    3.1565113    1.7668669 *  1.7689772 *
  17 B       3.7905217    2.8637618 *  2.3383901 *  3.3436437    2.9046219 *
  18 H       4.7298388    3.9525999    2.4330963 *  3.6763491    2.7778184 *
  19 H       3.2630578    2.3180706 *  3.0940163    2.4751759 *  2.6214907 *
  20 H       4.1308948    2.8291974 *  3.0986726    4.2447274    4.0343949  

               16 H         17 B         18 H         19 H         20 H     

   1 C       4.0782374    2.7577187 *  3.5817472    3.4244981    2.7376968 *
   2 C       3.9262701    3.3867592    4.4250824    3.5535177    3.3170268  
   3 C       2.9899460 *  2.8543228 *  3.8859391    2.5123701 *  3.0796328  
   4 C       3.0556914    1.7274599 *  2.3298224 *  2.3994698 *  2.3394065 *
   5 C       2.1334909 *  1.9146554 *  2.6659878 *  1.7509044 *  2.6762575 *
   6 C       1.0884025 *  2.8982527 *  3.1871196    2.3998663 *  3.8976868  
   7 H       5.0210529    2.8323600 *  3.6383263    3.6615950    2.4030153 *
   8 H       4.4125981    3.6633710    4.3128450    4.3844699    3.7324861  
   9 H       3.9500389    4.2883237    5.2468053    4.4135289    4.3512772  
  10 H       4.9278887    3.9129961    5.0178200    4.0650727    3.5272911  
  11 H       2.7599490 *  3.7905217    4.7298388    3.2630578    4.1308948  
  12 H       3.7785532    2.8637618 *  3.9525999    2.3180706 *  2.8291974 *
  13 H       3.1565113    2.3383901 *  2.4330963 *  3.0940163    3.0986726  
  14 H       1.7668669 *  3.3436437    3.6763491    2.4751759 *  4.2447274  
  15 H       1.7689772 *  2.9046219 *  2.7778184 *  2.6214907 *  4.0343949  
  16 H       0.0000000    3.7946012    4.1083370    3.4114985    4.7454642  
  17 B       3.7946012    0.0000000    1.1536715 *  1.1960929 *  1.1533208 *
  18 H       4.1083370    1.1536715 *  0.0000000    1.8859255 *  2.0104879 *
  19 H       3.4114985    1.1960929 *  1.8859255 *  0.0000000    1.8809089 *
  20 H       4.7454642    1.1533208 *  2.0104879 *  1.8809089 *  0.0000000  

  * ... LESS THAN  3.000


     ATOMIC BASIS SET
     ----------------
 THE CONTRACTED PRIMITIVE FUNCTIONS HAVE BEEN UNNORMALIZED
 THE CONTRACTED BASIS FUNCTIONS ARE NOW NORMALIZED TO UNITY

  SHELL TYPE  PRIMITIVE        EXPONENT          CONTRACTION COEFFICIENT(S)

 C         

      1   S       1            71.6168373    0.154328967295
      1   S       2            13.0450963    0.535328142282
      1   S       3             3.5305122    0.444634542185

      2   L       4             2.9412494   -0.099967229187    0.155916274999
      2   L       5             0.6834831    0.399512826089    0.607683718598
      2   L       6             0.2222899    0.700115468880    0.391957393099

 C         

      3   S       7            71.6168373    0.154328967295
      3   S       8            13.0450963    0.535328142282
      3   S       9             3.5305122    0.444634542185

      4   L      10             2.9412494   -0.099967229187    0.155916274999
      4   L      11             0.6834831    0.399512826089    0.607683718598
      4   L      12             0.2222899    0.700115468880    0.391957393099

 C         

      5   S      13            71.6168373    0.154328967295
      5   S      14            13.0450963    0.535328142282
      5   S      15             3.5305122    0.444634542185

      6   L      16             2.9412494   -0.099967229187    0.155916274999
      6   L      17             0.6834831    0.399512826089    0.607683718598
      6   L      18             0.2222899    0.700115468880    0.391957393099

 C         

      7   S      19            71.6168373    0.154328967295
      7   S      20            13.0450963    0.535328142282
      7   S      21             3.5305122    0.444634542185

      8   L      22             2.9412494   -0.099967229187    0.155916274999
      8   L      23             0.6834831    0.399512826089    0.607683718598
      8   L      24             0.2222899    0.700115468880    0.391957393099

 C         

      9   S      25            71.6168373    0.154328967295
      9   S      26            13.0450963    0.535328142282
      9   S      27             3.5305122    0.444634542185

     10   L      28             2.9412494   -0.099967229187    0.155916274999
     10   L      29             0.6834831    0.399512826089    0.607683718598
     10   L      30             0.2222899    0.700115468880    0.391957393099

 C         

     11   S      31            71.6168373    0.154328967295
     11   S      32            13.0450963    0.535328142282
     11   S      33             3.5305122    0.444634542185

     12   L      34             2.9412494   -0.099967229187    0.155916274999
     12   L      35             0.6834831    0.399512826089    0.607683718598
     12   L      36             0.2222899    0.700115468880    0.391957393099

 H         

     13   S      37             3.4252509    0.154328967295
     13   S      38             0.6239137    0.535328142282
     13   S      39             0.1688554    0.444634542185

 H         

     14   S      40             3.4252509    0.154328967295
     14   S      41             0.6239137    0.535328142282
     14   S      42             0.1688554    0.444634542185

 H         

     15   S      43             3.4252509    0.154328967295
     15   S      44             0.6239137    0.535328142282
     15   S      45             0.1688554    0.444634542185

 H         

     16   S      46             3.4252509    0.154328967295
     16   S      47             0.6239137    0.535328142282
     16   S      48             0.1688554    0.444634542185

 H         

     17   S      49             3.4252509    0.154328967295
     17   S      50             0.6239137    0.535328142282
     17   S      51             0.1688554    0.444634542185

 H         

     18   S      52             3.4252509    0.154328967295
     18   S      53             0.6239137    0.535328142282
     18   S      54             0.1688554    0.444634542185

 H         

     19   S      55             3.4252509    0.154328967295
     19   S      56             0.6239137    0.535328142282
     19   S      57             0.1688554    0.444634542185

 H         

     20   S      58             3.4252509    0.154328967295
     20   S      59             0.6239137    0.535328142282
     20   S      60             0.1688554    0.444634542185

 H         

     21   S      61             3.4252509    0.154328967295
     21   S      62             0.6239137    0.535328142282
     21   S      63             0.1688554    0.444634542185

 H         

     22   S      64             3.4252509    0.154328967295
     22   S      65             0.6239137    0.535328142282
     22   S      66             0.1688554    0.444634542185

 B         

     23   S      67            48.7911132    0.154328967295
     23   S      68             8.8873622    0.535328142282
     23   S      69             2.4052670    0.444634542185

     24   L      70             2.2369561   -0.099967229187    0.155916274999
     24   L      71             0.5198205    0.399512826089    0.607683718598
     24   L      72             0.1690618    0.700115468880    0.391957393099

 H         

     25   S      73             3.4252509    0.154328967295
     25   S      74             0.6239137    0.535328142282
     25   S      75             0.1688554    0.444634542185

 H         

     26   S      76             3.4252509    0.154328967295
     26   S      77             0.6239137    0.535328142282
     26   S      78             0.1688554    0.444634542185

 H         

     27   S      79             3.4252509    0.154328967295
     27   S      80             0.6239137    0.535328142282
     27   S      81             0.1688554    0.444634542185

 TOTAL NUMBER OF BASIS SET SHELLS             =   27
 NUMBER OF CARTESIAN GAUSSIAN BASIS FUNCTIONS =   48
 NUMBER OF ELECTRONS                          =   54
 CHARGE OF MOLECULE                           =    0
 SPIN MULTIPLICITY                            =    1
 NUMBER OF OCCUPIED ORBITALS (ALPHA)          =   27
 NUMBER OF OCCUPIED ORBITALS (BETA )          =   27
 TOTAL NUMBER OF ATOMS                        =   20
 THE NUCLEAR REPULSION ENERGY IS      309.8604851651

     $CONTRL OPTIONS
     ---------------
 SCFTYP=RHF          RUNTYP=IRC          EXETYP=RUN     
 MPLEVL=       0     CITYP =NONE         CCTYP =NONE         VBTYP =NONE    
 DFTTYP=NONE         TDDFT =NONE    
 MULT  =       1     ICHARG=       0     NZVAR =       1     COORD =UNIQUE  
 PP    =NONE         RELWFN=NONE         LOCAL =NONE         NUMGRD=       F
 ISPHER=      -1     NOSYM =       0     MAXIT =      30     UNITS =ANGS    
 PLTORB=       F     MOLPLT=       F     AIMPAC=       F     FRIEND=        
 NPRINT=       7     IREST =       0     GEOM  =INPUT   
 NORMF =       0     NORMP =       0     ITOL  =      20     ICUT  =       9
 INTTYP=BEST         GRDTYP=BEST         QMTTOL= 1.0E-06

     $SYSTEM OPTIONS
     ---------------
  REPLICATED MEMORY=     1000000 WORDS (ON EVERY NODE).
 DISTRIBUTED MEMDDI=           0 MILLION WORDS IN AGGREGATE,
 MEMDDI DISTRIBUTED OVER   1 PROCESSORS IS           0 WORDS/PROCESSOR.
 TOTAL MEMORY REQUESTED ON EACH PROCESSOR=     1000000 WORDS.
 TIMLIM=      525600.00 MINUTES, OR     365.0 DAYS.
 PARALL= F  BALTYP=  DLB     KDIAG=    0  COREFL= F
 MXSEQ2=     300 MXSEQ3=     150  mem10=         0

          ----------------
          PROPERTIES INPUT
          ----------------

     MOMENTS            FIELD           POTENTIAL          DENSITY
 IEMOM =       1   IEFLD =       0   IEPOT =       0   IEDEN =       0
 WHERE =COMASS     WHERE =NUCLEI     WHERE =NUCLEI     WHERE =NUCLEI  
 OUTPUT=BOTH       OUTPUT=BOTH       OUTPUT=BOTH       OUTPUT=BOTH    
 IEMINT=       0   IEFINT=       0                     IEDINT=       0
                                                       MORB  =       0
          EXTRAPOLATION IN EFFECT
          SOSCF IN EFFECT
 ORBITAL PRINTING OPTION: NPREO=     1    48     2     1

     -------------------------------
     INTEGRAL TRANSFORMATION OPTIONS
     -------------------------------
     NWORD  =            0
     CUTOFF = 1.0E-09     MPTRAN =       0
     DIRTRF =       F     AOINTS =DUP     

          ----------------------
          INTEGRAL INPUT OPTIONS
          ----------------------
 NOPK  =       1 NORDER=       0 SCHWRZ=       T


 -----------------------------------------------
  STATISTICS ON AUTOMATIC COORDINATE GENERATION 
 -----------------------------------------------
  NUMBER OF USER SPECIFIED BONDS                             4
  NUMBER OF BONDS                                           25
  NUMBER OF ANGLES                                          72
  NUMBER OF TORSIONS                                        93
  NUMBER OF EXTRA COORD.                                     0
  NUMBER OF EXTRA COORD. FOR CONSTRAINTS                     0
  NUMBER OF CONSTRAINED COORD.                               0

  TOTAL NUMBER OF PRIMITIVES                               190
 -----------------------------------------------

   --- ENCODED Z MATRIX ---
 COORD  TYPE   I   J   K   L   M   N
    1      1    1   4
    2      1    1   7
    3      1    1   2
    4      1    1   8
    5      1    2  10
    6      1    2   9
    7      1    2   3
    8      1    3  11
    9      1    3  12
   10      1    3   5
   11      1    4  13
   12      1    4   5
   13      1    4  17
   14      1    4   5
   15      1    4  17
   16      1    5   6
   17      1    5  19
   18      1    5  17
   19      1    6  15
   20      1    6  14
   21      1    6  16
   22      1   17  19
   23      1   17  20
   24      1   17  19
   25      1   17  18
   26      2    1   4   5
   27      2    1   4  13
   28      2    1   4   5
   29      2    1   4  17
   30      2    1   2   3
   31      2    1   2   9
   32      2    1   4  17
   33      2    1   2  10
   34      2    2   3  11
   35      2    2   1   8
   36      2    2   1   4
   37      2    2   1   7
   38      2    2   3   5
   39      2    2   3  12
   40      2    3   5  19
   41      2    3   5   4
   42      2    3   5   6
   43      2    3   5  17
   44      2    3   5   4
   45      2    3   2   9
   46      2    3   2  10
   47      2    4  17  18
   48      2    4   5  17
   49      2    4  17  18
   50      2    4  17  20
   51      2    4  17  19
   52      2    4  17   5
   53      2    4   5  19
   54      2    4   5   6
   55      2    4  17  19
   56      2    4  17  20
   57      2    4  17  19
   58      2    4  17  19
   59      2    4  17   5
   60      2    4   5  17
   61      2    4   5  19
   62      2    4   5   6
   63      2    4   1   7
   64      2    4   1   8
   65      2    5   4  13
   66      2    5  17  19
   67      2    5  19  17
   68      2    5   4  13
   69      2    5   6  16
   70      2    5   6  14
   71      2    5  17  19
   72      2    5   6  15
   73      2    5  19  17
   74      2    5   3  12
   75      2    5   4  17
   76      2    5   3  11
   77      2    5  17  20
   78      2    5   4  17
   79      2    5   4  17
   80      2    5   4  17
   81      2    5  17  18
   82      2    6   5  17
   83      2    6   5  19
   84      2    7   1   8
   85      2    9   2  10
   86      2   11   3  12
   87      2   13   4  17
   88      2   13   4  17
   89      2   14   6  16
   90      2   14   6  15
   91      2   15   6  16
   92      2   17   5  19
   93      2   18  17  19
   94      2   18  17  20
   95      2   18  17  19
   96      2   19  17  20
   97      2   19  17  20
   98      3    1   2   3   5
   99      3    1   2   3  12
  100      3    1   4   5  17
  101      3    1   2   3  11
  102      3    1   4  17  18
  103      3    1   4   5  19
  104      3    1   4   5   6
  105      3    1   4  17  20
  106      3    1   4  17  19
  107      3    1   4  17   5
  108      3    1   4   5   3
  109      3    2   1   4  17
  110      3    2   1   4   5
  111      3    2   1   4  13
  112      3    2   3   5  17
  113      3    2   3   5  19
  114      3    2   3   5   6
  115      3    2   3   5   4
  116      3    3   2   1   8
  117      3    3   2   1   7
  118      3    3   2   1   4
  119      3    3   5  17  18
  120      3    3   5  17  20
  121      3    3   5  17  19
  122      3    3   5  17   4
  123      3    3   5   6  16
  124      3    3   5   6  14
  125      3    3   5   6  15
  126      3    3   5   4  17
  127      3    3   5   4  13
  128      3    3   5  19  17
  129      3    4   5  17  18
  130      3    4   5  17  20
  131      3    4   5  17  19
  132      3    4   1   2  10
  133      3    4   5   3  12
  134      3    4   5   3  11
  135      3    4   5   6  16
  136      3    4   5   6  14
  137      3    4   5   6  15
  138      3    4   5  19  17
  139      3    4  17   5  19
  140      3    4  17   5   6
  141      3    4  17  19   5
  142      3    4   1   2   9
  143      3    5   4   1   8
  144      3    5   4  17  18
  145      3    5  19  17  18
  146      3    5  19  17  20
  147      3    5   4   1   7
  148      3    5  17   4  13
  149      3    5   4  17  19
  150      3    5   4  17  20
  151      3    5   3   2   9
  152      3    5   3   2  10
  153      3    6   5  19  17
  154      3    6   5  17  19
  155      3    6   5   3  12
  156      3    6   5   3  11
  157      3    6   5  17  18
  158      3    6   5   4  17
  159      3    6   5   4  13
  160      3    6   5  17  20
  161      3    7   1   2  10
  162      3    7   1   4  17
  163      3    7   1   4  13
  164      3    7   1   2   9
  165      3    8   1   2  10
  166      3    8   1   4  17
  167      3    8   1   4  13
  168      3    8   1   2   9
  169      3    9   2   3  11
  170      3    9   2   3  12
  171      3   10   2   3  11
  172      3   10   2   3  12
  173      3   11   3   5  17
  174      3   11   3   5  19
  175      3   12   3   5  17
  176      3   12   3   5  19
  177      3   13   4   5  17
  178      3   13   4  17  18
  179      3   13   4   5  19
  180      3   13   4  17  19
  181      3   13   4  17  20
  182      3   14   6   5  17
  183      3   14   6   5  19
  184      3   15   6   5  17
  185      3   15   6   5  19
  186      3   16   6   5  17
  187      3   16   6   5  19
  188      3   17   4   5  19
  189      3   18  17   5  19
  190      3   19   5  17  20

          INDEP./SYM. INTERNAL COORDINATES
          --------------------------------
 CRD  1=   0.1576 (  7)  0.3655 ( 10)  0.2345 ( 16)  0.1175 ( 36) -0.1052 ( 41)
           0.3143 ( 42) -0.1052 ( 44) -0.1732 ( 54) -0.1732 ( 62)  0.2054 ( 69)
           0.2157 ( 70) -0.2368 ( 72)  0.1015 ( 76) -0.1723 ( 82) -0.1179 ( 89)
           0.1455 (104)  0.1086 (128) -0.1101 (136) -0.1237 (140) -0.1869 (153)
          -0.1215 (154) -0.1233 (157)  0.1204 (158)  0.1241 (159) -0.1183 (160)
 CRD  2=   0.2575 (  1)  0.1025 ( 12)  0.1025 ( 14)  0.6111 ( 16)  0.1251 ( 38)
           0.1322 ( 54)  0.1322 ( 62)  0.2334 ( 69)  0.3138 ( 72) -0.1294 ( 89)
          -0.1553 ( 90) -0.2116 ( 91)  0.1177 (140)  0.1093 (153)
 CRD  3=   0.2426 (  1) -0.2488 ( 16) -0.1096 ( 23)  0.1269 ( 40)  0.1354 ( 43)
           0.3051 ( 69) -0.3472 ( 70) -0.1569 ( 72) -0.1682 ( 82) -0.1872 ( 83)
           0.1711 ( 90)  0.1746 (104)  0.1203 (108) -0.1355 (114)  0.1662 (126)
          -0.1056 (136)  0.1100 (140) -0.1042 (155) -0.1036 (156)  0.2205 (158)
           0.1368 (159)  0.1138 (185)
 CRD  4=  -0.2465 (  1) -0.1305 (  7) -0.3708 ( 10) -0.1443 ( 16) -0.1007 ( 18)
          -0.1370 ( 25) -0.1502 ( 29) -0.1502 ( 32) -0.1382 ( 40) -0.1322 ( 43)
          -0.1427 ( 63)  0.2153 ( 69) -0.1917 ( 70) -0.1393 ( 72) -0.1582 ( 74)
           0.1319 ( 90)  0.1704 (100)  0.1650 (103)  0.1225 (104)  0.1059 (111)
          -0.1482 (114)  0.1285 (125) -0.1501 (126) -0.1537 (132) -0.1096 (142)
           0.1025 (151)  0.1238 (152)
 CRD  5=   0.4627 (  1)  0.1377 (  4) -0.1467 (  8) -0.3403 ( 10)  0.1173 ( 13)
           0.1173 ( 15)  0.1522 ( 31) -0.1303 ( 34) -0.1363 ( 36)  0.2339 ( 38)
          -0.1244 ( 45)  0.1368 ( 63)  0.1282 ( 70) -0.1992 ( 74)  0.1099 ( 86)
          -0.1017 ( 99)  0.1325 (109)  0.1007 (110)  0.1204 (112)  0.1183 (113)
          -0.1335 (117)
 CRD  6=   0.1074 (  2) -0.2171 (  3) -0.1603 (  5) -0.1170 (  6) -0.1279 ( 10)
           0.1414 ( 12)  0.1414 ( 14)  0.1145 ( 16)  0.3925 ( 30) -0.1528 ( 31)
          -0.1618 ( 33)  0.1024 ( 34) -0.2970 ( 36) -0.2272 ( 38) -0.1182 ( 45)
          -0.1345 ( 46)  0.1987 ( 63)  0.2193 ( 69)  0.1376 ( 70) -0.2486 ( 72)
           0.1568 ( 74) -0.1173 ( 84)  0.1657 ( 85) -0.1512 ( 89)
 CRD  7=  -0.2288 (  3)  0.1777 ( 10) -0.1477 ( 20)  0.1125 ( 30) -0.1845 ( 33)
          -0.1488 ( 37) -0.1037 ( 38) -0.1462 ( 45)  0.1284 ( 63)  0.1570 ( 69)
          -0.5167 ( 70)  0.3281 ( 72)  0.1525 ( 76)  0.1456 ( 89) -0.1961 ( 91)
          -0.1049 (101) -0.1119 (108)  0.1031 (109)
 CRD  8=   0.4627 (  3) -0.4956 (  7)  0.1898 ( 10)  0.1511 ( 31)  0.1372 ( 33)
          -0.1276 ( 34)  0.1345 ( 35) -0.1906 ( 45) -0.1788 ( 46)  0.1591 ( 69)
           0.1023 ( 76) -0.1067 (132)  0.1048 (142)  0.1184 (151)  0.1430 (164)
          -0.1385 (165)  0.1771 (170) -0.1721 (171)
 CRD  9=   0.1065 (  1) -0.3703 (  3) -0.1182 (  5) -0.4252 (  7) -0.1171 (  9)
           0.1073 ( 27) -0.1683 ( 35) -0.1670 ( 39) -0.1513 ( 46)  0.1703 ( 64)
          -0.2645 ( 69)  0.1132 ( 70) -0.1010 ( 90)  0.1332 (116) -0.1023 (132)
           0.1170 (166)
 CRD 10=   0.1670 (  1)  0.2272 (  3)  0.1954 (  4)  0.1528 (  7)  0.1649 (  8)
           0.1305 ( 10) -0.1043 ( 18)  0.1559 ( 19) -0.1522 ( 21)  0.1064 ( 26)
           0.1064 ( 28)  0.1386 ( 30) -0.1667 ( 36)  0.1395 ( 37) -0.1158 ( 46)
           0.1384 ( 64) -0.3517 ( 69)  0.3293 ( 72) -0.1156 ( 84)  0.2076 ( 89)
          -0.1310 ( 90) -0.1100 (114)
 CRD 11=   0.2411 (  1) -0.1048 (  2)  0.1373 (  4)  0.1265 (  7)  0.2325 (  8)
           0.1825 ( 10)  0.1971 ( 11)  0.1315 ( 13)  0.1315 ( 15)  0.1784 ( 17)
           0.2164 ( 18)  0.1106 ( 21)  0.1235 ( 23)  0.1382 ( 25) -0.1317 ( 35)
           0.1987 ( 64)  0.1101 ( 69) -0.1715 ( 72)  0.1526 ( 76)  0.1035 ( 81)
           0.1198 ( 90) -0.1160 ( 94)  0.1127 ( 98) -0.1039 (118) -0.1578 (142)
           0.1143 (143) -0.1087 (145)  0.1037 (151)  0.1473 (152)
 CRD 12=  -0.1705 (  8) -0.1419 ( 10) -0.1962 ( 11) -0.1318 ( 12)  0.1249 ( 13)
          -0.1318 ( 14)  0.1249 ( 15) -0.1708 ( 20)  0.1024 ( 21)  0.1247 ( 23)
          -0.1971 ( 31)  0.2131 ( 33) -0.1251 ( 35)  0.1917 ( 37)  0.1332 ( 45)
          -0.1355 ( 46) -0.1295 ( 63)  0.1226 ( 64)  0.1476 ( 69) -0.1451 ( 70)
           0.1193 ( 72)  0.1314 ( 74) -0.1779 ( 76) -0.1537 ( 91)  0.1483 ( 99)
           0.1792 (101)  0.1281 (143)  0.1010 (146)  0.1451 (147) -0.1651 (151)
          -0.1638 (152)  0.1045 (162)
 CRD 13=   0.2401 (  1) -0.1362 (  8)  0.3056 (  9)  0.1347 ( 10)  0.3664 ( 11)
          -0.1056 ( 13) -0.1056 ( 15)  0.1190 ( 21) -0.1216 ( 23)  0.1088 ( 27)
          -0.1045 ( 31)  0.1054 ( 34) -0.1352 ( 37)  0.1330 ( 63)  0.1810 ( 74)
          -0.1723 ( 76) -0.1085 ( 77)  0.1027 ( 90) -0.1127 (126) -0.1207 (127)
           0.1014 (134) -0.1160 (146) -0.1093 (147) -0.1606 (151) -0.1530 (152)
 CRD 14=   0.1107 (  1)  0.1450 (  2) -0.1404 (  4)  0.2966 (  5) -0.3588 (  6)
           0.1792 (  8) -0.2349 (  9) -0.1180 ( 12) -0.1048 ( 13) -0.1180 ( 14)
          -0.1048 ( 15)  0.1234 ( 27) -0.1829 ( 45)  0.1859 ( 46)  0.1552 ( 63)
          -0.1130 ( 65) -0.1130 ( 68)  0.1341 (101) -0.1019 (112) -0.1049 (113)
          -0.1917 (116) -0.2181 (117)  0.1365 (132)  0.1333 (142) -0.1170 (160)
 CRD 15=  -0.1279 (  1) -0.3381 (  2)  0.2287 (  4)  0.3171 (  5) -0.3877 (  6)
           0.1316 ( 20) -0.1207 ( 27) -0.1402 ( 31)  0.1397 ( 33)  0.1253 ( 35)
          -0.1121 ( 37) -0.1036 ( 64)  0.1013 ( 98)  0.1736 ( 99)  0.1682 (101)
           0.1339 (109)  0.1094 (111) -0.1438 (116) -0.1157 (118)  0.1154 (160)
 CRD 16=   0.1120 ( 11) -0.1326 ( 16) -0.4700 ( 19) -0.4808 ( 20) -0.4835 ( 21)
           0.1754 ( 69)  0.1922 ( 70)  0.1884 ( 72) -0.1810 ( 89) -0.2056 ( 90)
          -0.1784 ( 91)
 CRD 17=  -0.3168 (  2)  0.2849 (  4) -0.2361 ( 11) -0.1143 ( 13) -0.1143 ( 15)
           0.1227 ( 19)  0.1072 ( 21)  0.1528 ( 23)  0.1688 ( 35) -0.2007 ( 37)
           0.1217 ( 45) -0.1270 ( 46) -0.1134 ( 47) -0.1134 ( 49) -0.1232 ( 81)
          -0.1104 ( 87) -0.1104 ( 88) -0.1072 (127) -0.1368 (132) -0.1365 (142)
          -0.1412 (143)  0.1370 (145) -0.1652 (147) -0.1079 (161) -0.2078 (162)
          -0.1532 (163) -0.1077 (164) -0.1837 (166) -0.1292 (167) -0.1011 (177)
 CRD 18=  -0.1693 (  4)  0.5515 ( 11)  0.1001 ( 19)  0.1444 ( 20)  0.3855 ( 23)
          -0.4006 ( 25)  0.1580 ( 50)  0.1580 ( 56)  0.1614 ( 77) -0.1191 ( 81)
          -0.1184 (102) -0.1184 (105)  0.1202 (145)  0.1738 (146)
 CRD 19=   0.1186 (  4) -0.4203 (  9) -0.1354 ( 20)  0.1186 ( 35) -0.2330 (123)
          -0.2219 (124) -0.2242 (125) -0.2039 (135) -0.1928 (136) -0.1950 (137)
          -0.1272 (143) -0.1181 (147) -0.1127 (162) -0.1218 (166) -0.2011 (182)
          -0.1797 (183) -0.2033 (184) -0.1819 (185) -0.2121 (186) -0.1907 (187)
 CRD 20=   0.6251 ( 23)  0.6328 ( 25)  0.1344 ( 94)
 CRD 21=  -0.1976 (  2)  0.1339 (  4) -0.1650 (  5)  0.2842 (  8)  0.1398 ( 21)
          -0.1117 ( 23) -0.1870 ( 25)  0.1273 ( 31) -0.1158 ( 33)  0.2179 ( 34)
          -0.2148 ( 39)  0.1234 ( 74) -0.1490 ( 76)  0.2015 (133)  0.2008 (134)
           0.1141 (151)  0.1031 (152)  0.1822 (155)  0.1815 (156)  0.1743 (169)
           0.1544 (170)  0.1632 (171)  0.1434 (172)  0.1902 (173)  0.1761 (174)
           0.1909 (175)  0.1768 (176)
 CRD 22=  -0.3511 (  2) -0.2373 (  4)  0.5434 (  5)  0.5204 (  6) -0.1252 (  9)
          -0.1158 ( 84)  0.1926 ( 85)  0.1624 (168)  0.1211 (172)
 CRD 23=  -0.4010 (  2) -0.5480 (  4) -0.2101 (  5) -0.1702 (  6)  0.3341 (  8)
           0.2214 (  9)  0.1508 ( 19)  0.1064 ( 25) -0.1747 ( 84) -0.1299 (164)
          -0.1144 (172)
 CRD 24=   0.3281 (  2)  0.1080 (  4)  0.2526 (  5)  0.2723 (  6) -0.1066 (  7)
           0.5045 (  8)  0.2917 (  9)  0.1204 ( 19) -0.1042 ( 64)  0.1088 ( 85)
           0.1457 ( 86) -0.1045 (116) -0.1062 (161) -0.1929 (165) -0.1713 (170)
 CRD 25=   0.1444 (  4)  0.5616 ( 19) -0.5093 ( 21) -0.2582 ( 89)  0.2244 ( 90)
          -0.1194 (123)  0.1386 (124) -0.1076 (135)  0.1504 (136)  0.1462 (182)
           0.1470 (183) -0.1118 (186) -0.1111 (187)
 CRD 26=  -0.1440 (  8) -0.1978 (  9)  0.3078 ( 19) -0.5770 ( 20)  0.3156 ( 21)
          -0.1326 ( 89) -0.1473 ( 90)  0.2684 ( 91)  0.2094 (125)  0.1949 (137)
           0.1849 (184)  0.1883 (185)
 CRD 27=   0.2105 (  4)  0.1174 (  5)  0.1318 (  8)  0.3541 (  9) -0.1848 ( 20)
           0.2534 ( 21)  0.1166 ( 23) -0.1020 ( 34) -0.1025 ( 35) -0.1028 ( 45)
          -0.1158 ( 63)  0.1013 ( 64)  0.1143 ( 86) -0.1203 ( 90)  0.1151 ( 91)
           0.1078 ( 94) -0.1660 (123) -0.1714 (124) -0.1088 (134) -0.1660 (135)
          -0.1714 (136) -0.1147 (156)  0.1632 (161)  0.1820 (164)  0.1449 (165)
           0.1638 (168) -0.1269 (173) -0.1104 (174) -0.1511 (182) -0.1459 (183)
          -0.1456 (186) -0.1404 (187)
 CRD 28=  -0.3081 (  8)  0.2861 (  9)  0.1108 ( 13)  0.1108 ( 15) -0.1021 ( 33)
           0.1016 ( 35)  0.1335 ( 47)  0.1335 ( 49)  0.1100 ( 81) -0.1903 ( 94)
           0.1200 (101) -0.1275 (133) -0.1269 (143) -0.1159 (145) -0.1092 (147)
           0.1074 (152) -0.1323 (155) -0.1023 (156)  0.1014 (159) -0.1113 (162)
          -0.1358 (163) -0.1290 (166) -0.1535 (167)  0.1645 (169)  0.1402 (170)
           0.1907 (171)  0.1664 (172) -0.1077 (176)
 CRD 29=  -0.1482 (  1)  0.1163 (  4) -0.1421 (  9) -0.1303 ( 10)  0.2028 ( 11)
           0.1173 ( 16)  0.1091 ( 19) -0.2910 ( 23)  0.3213 ( 25)  0.1068 ( 39)
           0.1007 ( 72) -0.1362 ( 91) -0.1161 ( 99) -0.1412 (102) -0.1114 (105)
          -0.1263 (106)  0.1306 (117) -0.1546 (119) -0.1034 (120) -0.1356 (121)
          -0.1232 (128) -0.1251 (153) -0.1247 (154) -0.1437 (157)  0.1327 (161)
           0.1526 (164) -0.1417 (170) -0.1235 (172)  0.1072 (173)
 CRD 30=   0.2122 (  5) -0.2287 (  6)  0.1485 ( 23) -0.1321 ( 25) -0.1030 ( 98)
          -0.1268 ( 99) -0.1634 (101)  0.1284 (102) -0.1147 (109) -0.1082 (111)
           0.1710 (116)  0.1306 (117)  0.1144 (118)  0.1583 (132)  0.1408 (142)
          -0.1549 (143) -0.1128 (151) -0.1199 (152)  0.1745 (161)  0.1571 (164)
           0.2149 (165) -0.1716 (166) -0.1651 (167)  0.1974 (168) -0.1732 (169)
          -0.1366 (170) -0.1803 (171) -0.1437 (172)
 CRD 31=  -0.1162 (  4)  0.1248 ( 10) -0.3744 ( 11) -0.3255 ( 17)  0.2529 ( 23)
          -0.1435 ( 25)  0.1531 ( 47)  0.1531 ( 49) -0.1150 ( 51) -0.1150 ( 55)
          -0.1150 ( 57) -0.1150 ( 58) -0.1352 ( 66)  0.1241 ( 67) -0.1352 ( 71)
           0.1241 ( 73) -0.1452 ( 94)  0.1070 ( 96)  0.1070 ( 97) -0.1356 (105)
          -0.1889 (119) -0.1529 (129)  0.1116 (134) -0.1011 (145) -0.1058 (157)
          -0.1450 (189)
 CRD 32=   0.1033 ( 11) -0.2234 ( 17) -0.1292 ( 23)  0.2429 ( 25)  0.1192 ( 27)
           0.2071 ( 50) -0.1117 ( 51) -0.1117 ( 55)  0.2071 ( 56) -0.1117 ( 57)
          -0.1117 ( 58) -0.1063 ( 66) -0.1063 ( 71)  0.1196 ( 77)  0.1798 ( 93)
          -0.1872 ( 94)  0.1798 ( 95)  0.1671 (102)  0.1444 (119)  0.1630 (120)
          -0.1232 (127)  0.1742 (129)  0.1927 (130)  0.1629 (144)  0.1384 (146)
           0.1531 (157)  0.1717 (160)  0.2312 (178) -0.1103 (179)  0.1069 (180)
           0.1339 (189)  0.1525 (190)
 CRD 33=   0.1427 ( 12)  0.1427 ( 14) -0.1365 ( 20)  0.4145 ( 22)  0.4145 ( 24)
           0.1158 ( 89)  0.1192 ( 92) -0.1473 ( 94)  0.1455 ( 96)  0.1455 ( 97)
          -0.1509 (105)  0.1076 (119) -0.1470 (130) -0.1630 (150) -0.1836 (160)
           0.1033 (176) -0.1013 (180) -0.2381 (181) -0.1170 (185) -0.1191 (190)
 CRD 34=  -0.1657 (  2)  0.1560 (  4) -0.1758 (  5)  0.1738 (  6)  0.1601 (  8)
          -0.1648 (  9) -0.2567 ( 16) -0.1456 ( 17)  0.1853 ( 19)  0.1992 ( 20)
           0.1774 ( 21)  0.1215 ( 22)  0.1246 ( 23)  0.1215 ( 24) -0.1231 ( 25)
           0.2150 ( 69)  0.1900 ( 70)  0.1829 ( 72)  0.1000 ( 81) -0.1969 ( 89)
          -0.2121 ( 90) -0.1879 ( 91) -0.1044 (145) -0.1392 (146)  0.1079 (178)
          -0.1191 (190)
 CRD 35=   0.2146 (  2) -0.1964 (  4)  0.2398 (  5) -0.2132 (  6) -0.1504 (  8)
           0.1814 (  9) -0.1225 ( 11) -0.3979 ( 16)  0.2078 ( 17)  0.1760 ( 19)
           0.1726 ( 20)  0.1434 ( 21)  0.1597 ( 69)  0.1866 ( 70)  0.1896 ( 72)
          -0.1729 ( 89) -0.1933 ( 90) -0.1788 ( 91)  0.1052 (116) -0.1067 (142)
           0.1060 (151)
 CRD 36=   0.1282 (  6)  0.1465 (  7)  0.1646 (  8) -0.1396 ( 11)  0.1051 ( 22)
           0.1051 ( 24)  0.1680 ( 31)  0.1969 ( 33) -0.1722 ( 35) -0.1777 ( 37)
           0.1352 ( 63)  0.1310 ( 74) -0.1687 ( 85) -0.1278 ( 86)  0.1074 ( 87)
           0.1074 ( 88)  0.1418 ( 99)  0.1109 (143) -0.1643 (147)  0.1390 (151)
          -0.1755 (152) -0.1196 (162) -0.2153 (163)  0.1556 (166)  0.2786 (170)
          -0.2277 (171)  0.1095 (177)  0.1206 (179)
 CRD 37=  -0.1753 (  1)  0.2635 (  3)  0.1633 (  4) -0.1884 (  7) -0.1529 ( 17)
          -0.1346 ( 31) -0.1406 ( 33) -0.1256 ( 34)  0.2223 ( 45)  0.2335 ( 46)
           0.1691 ( 63)  0.1149 ( 64) -0.1654 ( 84) -0.1474 ( 85)  0.1014 ( 86)
           0.1021 (116) -0.1623 (117)  0.1953 (132) -0.1065 (134) -0.1710 (142)
          -0.3411 (164)  0.2896 (165) -0.1125 (173) -0.1239 (174)
 CRD 38=  -0.1333 (  1)  0.2732 (  3) -0.2690 (  7)  0.2462 ( 10) -0.1561 ( 11)
           0.1257 ( 16)  0.2006 ( 17) -0.1028 ( 21)  0.1444 ( 22)  0.1444 ( 24)
           0.1651 ( 34) -0.1293 ( 37)  0.1522 ( 39)  0.1088 ( 63) -0.1703 ( 74)
          -0.1796 ( 76) -0.1308 ( 99)  0.1564 (101)  0.1010 (165)  0.1009 (168)
          -0.2168 (170)  0.1804 (171) -0.1068 (172)  0.1222 (173)  0.1451 (174)
 CRD 39=   0.2111 (  1)  0.1716 ( 10) -0.1271 ( 11) -0.2018 ( 19)  0.1421 ( 20)
           0.1372 ( 22)  0.1372 ( 24) -0.1190 ( 31)  0.1264 ( 35) -0.1098 ( 40)
           0.1023 ( 53)  0.1023 ( 61) -0.1244 ( 63) -0.1250 ( 64) -0.1071 ( 81)
          -0.1878 ( 89) -0.1095 (102)  0.1017 (103) -0.1221 (123)  0.1027 (124)
           0.1367 (136)  0.1306 (145) -0.1082 (151)  0.1215 (161)  0.1050 (164)
          -0.1290 (167) -0.1581 (169)  0.1423 (172)  0.1136 (179) -0.1072 (185)
          -0.1806 (186) -0.2419 (187)
 CRD 40=  -0.1193 (  1)  0.1071 (  5) -0.1093 (  7)  0.1097 (  9) -0.2189 ( 10)
           0.1624 ( 16)  0.2027 ( 17)  0.1484 ( 20) -0.1839 ( 21)  0.1070 ( 22)
           0.1070 ( 24)  0.1222 ( 27)  0.1062 ( 46) -0.1088 ( 65) -0.1088 ( 68)
           0.1173 ( 74)  0.1266 ( 76) -0.1304 ( 85) -0.1311 ( 86) -0.1096 ( 90)
           0.1677 ( 91) -0.1564 (101)  0.1603 (125)  0.1055 (132)  0.1059 (137)
          -0.1016 (142) -0.1150 (164) -0.1660 (168) -0.1104 (169)  0.1239 (170)
          -0.1520 (171) -0.1033 (179)  0.1234 (180)  0.1102 (184)  0.1179 (185)
 CRD 41=   0.1331 (  1) -0.1423 (  2) -0.1820 (  5)  0.1602 (  6) -0.1306 ( 11)
           0.1023 ( 12)  0.1023 ( 14) -0.2097 ( 16)  0.1728 ( 17)  0.1121 ( 18)
           0.1565 ( 19) -0.1735 ( 21) -0.1038 ( 39) -0.1071 ( 64) -0.1858 ( 90)
           0.1172 (103) -0.1161 (113) -0.1435 (116)  0.1405 (125) -0.1010 (126)
           0.1294 (132) -0.1553 (136)  0.1341 (142) -0.1351 (151) -0.1157 (152)
           0.1166 (163)  0.1549 (167) -0.1267 (169) -0.1074 (171) -0.1105 (174)
          -0.1359 (182) -0.1266 (183)  0.1028 (185)
 CRD 42=  -0.1289 (  2)  0.2362 (  3) -0.1871 (  4) -0.1131 ( 10) -0.1012 ( 11)
           0.1861 ( 12)  0.1861 ( 14)  0.1042 ( 19) -0.1519 ( 20) -0.1206 ( 33)
           0.2550 ( 84) -0.1127 ( 91) -0.1288 (116)  0.1652 (117)  0.1139 (123)
           0.1169 (135) -0.1533 (147)  0.1855 (161) -0.1009 (162) -0.2017 (163)
           0.1201 (164) -0.1085 (165)  0.1228 (166) -0.1739 (168)  0.1003 (172)
           0.1107 (178)  0.1237 (180)  0.1611 (181)  0.1210 (186)  0.1177 (187)
 CRD 43=  -0.2127 (  2)  0.1118 (  3)  0.1010 (  4)  0.1378 (  7) -0.2412 (  8)
           0.1145 (  9)  0.1006 ( 11) -0.1478 ( 19)  0.1099 ( 20) -0.1699 ( 35)
          -0.1110 ( 39)  0.1038 ( 63) -0.1002 ( 74)  0.1062 ( 86) -0.1353 ( 89)
          -0.1873 ( 99)  0.1036 (107) -0.1018 (109) -0.1020 (111) -0.1068 (116)
          -0.1462 (123)  0.1563 (133) -0.1435 (135)  0.1787 (143)  0.1530 (155)
          -0.1556 (161) -0.1673 (165)  0.1278 (166)  0.1277 (167) -0.1339 (170)
          -0.1288 (172)  0.1280 (175)  0.1243 (176)  0.1019 (183) -0.1078 (186)
 CRD 44=  -0.1669 (  4)  0.1129 (  6) -0.1928 (  9) -0.1653 ( 19)  0.1213 ( 20)
           0.1047 ( 25) -0.1256 ( 37)  0.1442 ( 86) -0.1374 ( 89)  0.1809 (101)
           0.1573 (111)  0.1666 (124) -0.1622 (127) -0.1412 (134)  0.1251 (136)
          -0.1220 (147) -0.1107 (152) -0.1613 (156) -0.1044 (159)  0.1679 (161)
          -0.1106 (162)  0.1292 (165)  0.1099 (169) -0.1366 (173) -0.1464 (174)
          -0.1134 (177) -0.1325 (179)  0.1380 (182)  0.1393 (183)
 CRD 45=   0.1381 (  1) -0.2017 (  3)  0.1884 (  5)  0.1590 (  6) -0.2306 (  7)
           0.1430 ( 10)  0.2132 ( 30)  0.1429 ( 34)  0.1082 ( 37) -0.1203 ( 64)
          -0.1023 ( 74) -0.2750 ( 85) -0.1495 ( 99) -0.1207 (116)  0.1859 (132)
          -0.1343 (142)  0.1782 (151) -0.1423 (152)  0.2382 (161) -0.2932 (168)
           0.2334 (169) -0.2787 (172)
 CRD 46=  -0.1146 (  5)  0.1530 (  9) -0.1161 ( 10) -0.1401 ( 20)  0.1997 ( 21)
           0.1095 ( 38)  0.1037 ( 46)  0.1015 ( 51)  0.1015 ( 55)  0.1015 ( 57)
           0.1015 ( 58) -0.1059 ( 69) -0.1755 ( 86)  0.1564 ( 90) -0.1157 ( 91)
          -0.1144 ( 94)  0.1150 ( 99)  0.1308 (104) -0.1138 (114) -0.1101 (117)
           0.1295 (124) -0.1398 (125) -0.1004 (133) -0.1826 (137) -0.1042 (145)
          -0.1484 (155)  0.1156 (167) -0.2251 (169) -0.1219 (171)  0.1015 (174)
           0.1047 (182)  0.1225 (183) -0.1646 (184) -0.1468 (185)
 CRD 47=   0.1667 (  1) -0.1168 (  2)  0.1876 (  3) -0.1080 (  4) -0.1674 (  7)
           0.1210 (  8) -0.1146 ( 12) -0.1199 ( 13) -0.1146 ( 14) -0.1199 ( 15)
          -0.1130 ( 18) -0.1583 ( 22) -0.1583 ( 24) -0.1668 ( 27) -0.1198 ( 33)
          -0.1501 ( 36)  0.1108 ( 45)  0.1742 ( 84) -0.1149 ( 86) -0.1149 ( 94)
           0.1746 (102)  0.1016 (114)  0.1381 (117)  0.1063 (119)  0.1335 (143)
           0.1048 (156) -0.1530 (162)  0.1487 (167) -0.1781 (168)  0.1527 (172)
          -0.1250 (176) -0.1345 (181)
 CRD 48=  -0.1116 (  4)  0.1304 (  6) -0.1185 (  7)  0.1171 (  9)  0.1763 ( 13)
           0.1763 ( 15)  0.2416 ( 18) -0.1434 ( 23) -0.1099 ( 31) -0.1034 ( 37)
           0.1093 ( 46) -0.1388 ( 51) -0.1388 ( 55) -0.1388 ( 57) -0.1388 ( 58)
           0.1383 ( 67)  0.1383 ( 73) -0.1206 ( 81)  0.1399 ( 94)  0.1176 ( 96)
           0.1176 ( 97)  0.1136 ( 98)  0.1132 ( 99)  0.1269 (110) -0.1545 (118)
           0.1107 (119)  0.1048 (134)  0.1515 (145) -0.1061 (146)  0.1510 (161)
          -0.1136 (162)  0.1292 (165) -0.1348 (169) -0.1384 (171) -0.1140 (190)
 CRD 49=   0.1901 ( 10) -0.1112 ( 18)  0.1245 ( 19) -0.1571 ( 23)  0.2060 ( 25)
          -0.1000 ( 43)  0.1519 ( 54)  0.1519 ( 62) -0.1035 ( 72)  0.1721 ( 77)
          -0.1224 ( 81)  0.1504 ( 82) -0.1680 ( 93) -0.1680 ( 95)  0.1150 ( 96)
           0.1150 ( 97)  0.1509 (106)  0.1041 (107)  0.1042 (121)  0.1363 (128)
           0.1469 (135)  0.1171 (140) -0.1463 (144)  0.1484 (146)  0.1034 (148)
          -0.1528 (150)  0.2112 (153)  0.1666 (154) -0.1288 (158)  0.1502 (180)
          -0.1589 (182) -0.1240 (183) -0.1360 (189)
 CRD 50=   0.1132 (  6) -0.1595 (  8) -0.2326 ( 12) -0.1311 ( 13) -0.2326 ( 14)
          -0.1311 ( 15)  0.1400 ( 16) -0.1826 ( 18) -0.1152 ( 27) -0.1337 ( 39)
           0.1041 ( 41) -0.1494 ( 42)  0.1081 ( 43)  0.1041 ( 44) -0.1013 ( 45)
           0.1300 ( 76)  0.1967 ( 98) -0.1339 (115) -0.1696 (118)  0.1137 (127)
          -0.1295 (128)  0.1415 (155)  0.1182 (161) -0.1017 (170) -0.1282 (171)
          -0.1603 (172)  0.1732 (175)  0.1877 (176)
 CRD 51=  -0.2025 ( 12) -0.2025 ( 14)  0.1305 ( 18)  0.1907 ( 22)  0.1907 ( 24)
          -0.1246 ( 51) -0.1246 ( 55) -0.1246 ( 57) -0.1246 ( 58)  0.1001 ( 65)
           0.1001 ( 68)  0.1176 ( 94)  0.2416 (105)  0.1271 (106)  0.1233 (107)
          -0.1724 (109)  0.1140 (111) -0.1183 (119) -0.1053 (144) -0.1442 (148)
           0.1183 (150) -0.1095 (156)  0.1148 (160) -0.1801 (162)  0.1063 (163)
           0.2183 (167) -0.2494 (178) -0.1404 (180)
 CRD 52=   0.1668 (  1) -0.1344 ( 10) -0.1338 ( 11) -0.1180 ( 23)  0.1201 ( 25)
          -0.1299 ( 26) -0.1299 ( 28) -0.1008 ( 29) -0.1008 ( 32)  0.1054 ( 41)
           0.1054 ( 44)  0.1240 ( 50) -0.1479 ( 54)  0.1240 ( 56) -0.1479 ( 62)
           0.1421 ( 65)  0.1421 ( 68)  0.1330 ( 87)  0.1330 ( 88) -0.1344 ( 93)
          -0.1344 ( 95) -0.1218 (107)  0.1165 (121) -0.1035 (122)  0.1089 (127)
           0.1604 (130)  0.2200 (131)  0.1932 (138) -0.2200 (139) -0.1775 (140)
          -0.1652 (141) -0.1414 (148)  0.2085 (149) -0.1143 (157)  0.1100 (159)
           0.1447 (177) -0.1183 (178) -0.1360 (188) -0.1568 (189)
 CRD 53=   0.1148 ( 12) -0.2128 ( 13)  0.1148 ( 14) -0.2128 ( 15)  0.1745 ( 22)
           0.1745 ( 24)  0.1211 ( 47)  0.1211 ( 49) -0.1443 ( 96) -0.1443 ( 97)
          -0.1203 (112)  0.2514 (120)  0.1298 (122) -0.1064 (123) -0.1875 (129)
           0.1216 (130) -0.1173 (154)  0.1284 (156) -0.2320 (157) -0.1161 (163)
          -0.1146 (167) -0.1434 (175)  0.1279 (181)  0.1468 (184) -0.1147 (189)
           0.1944 (190)
 CRD 54=  -0.1324 ( 13) -0.1324 ( 15)  0.1758 ( 17)  0.1159 ( 18) -0.1104 ( 53)
          -0.1104 ( 61) -0.2098 (108)  0.1536 (110) -0.1004 (114)  0.1726 (115)
           0.1408 (123)  0.1784 (124) -0.1154 (126)  0.1435 (133) -0.1708 (135)
          -0.1332 (136) -0.2487 (137)  0.1052 (143)  0.1223 (147) -0.1295 (155)
          -0.1810 (156)  0.1644 (158)  0.3174 (159) -0.1185 (163) -0.1356 (167)
           0.1530 (177)  0.1562 (179) -0.1167 (184)

 THE DETERMINANT OF THE G MATRIX IS 10**(    -7)


                     --------------------
                     INTERNAL COORDINATES
                     --------------------

                 - - ATOMS - -         COORDINATE      COORDINATE
 NO.   TYPE    I  J  K  L  M  N        (BOHR,RAD)       (ANG,DEG)
 ----------------------------------------------------------------
   1 STRETCH   1  4                     2.9071751       1.5384109
   2 STRETCH   1  7                     2.0537810       1.0868142
   3 STRETCH   1  2                     2.9401411       1.5558558
   4 STRETCH   1  8                     2.0562933       1.0881436
   5 STRETCH   2 10                     2.0530270       1.0864152
   6 STRETCH   2  9                     2.0547348       1.0873189
   7 STRETCH   2  3                     2.9334867       1.5523344
   8 STRETCH   3 11                     2.0554668       1.0877062
   9 STRETCH   3 12                     2.0537334       1.0867890
  10 STRETCH   3  5                     2.9192722       1.5448124
  11 STRETCH   4 13                     2.0413900       1.0802571
  12 STRETCH   4  5                     2.6695649       1.4126730
  13 STRETCH   4 17                     3.2644259       1.7274599
  14 STRETCH   4  5                     2.6695649       1.4126730
  15 STRETCH   4 17                     3.2644259       1.7274599
  16 STRETCH   5  6                     2.8897635       1.5291971
  17 STRETCH   5 19                     3.3087296       1.7509044
  18 STRETCH   5 17                     3.6181741       1.9146554
  19 STRETCH   6 15                     2.0509306       1.0853058
  20 STRETCH   6 14                     2.0520292       1.0858872
  21 STRETCH   6 16                     2.0567824       1.0884025
  22 STRETCH  17 19                     2.2602879       1.1960929
  23 STRETCH  17 20                     2.1794603       1.1533208
  24 STRETCH  17 19                     2.2602879       1.1960929
  25 STRETCH  17 18                     2.1801231       1.1536715
  26 BEND      1  4  5                  1.9300938     110.5862302
  27 BEND      1  4 13                  2.0669119     118.4253293
  28 BEND      1  4  5                  1.9300938     110.5862302
  29 BEND      1  4 17                  2.0087763     115.0944032
  30 BEND      1  2  3                  1.8600397     106.5724261
  31 BEND      1  2  9                  1.9156597     109.7592177
  32 BEND      1  4 17                  2.0087763     115.0944032
  33 BEND      1  2 10                  1.9577039     112.1681709
  34 BEND      2  3 11                  1.9596771     112.2812245
  35 BEND      2  1  8                  1.9340787     110.8145449
  36 BEND      2  1  4                  1.8342637     105.0955664
  37 BEND      2  1  7                  1.9426486     111.3055647
  38 BEND      2  3  5                  1.8232326     104.4635305
  39 BEND      2  3 12                  1.9505586     111.7587732
  40 BEND      3  5 19                  1.7304290      99.1462768
  41 BEND      3  5  4                  1.9203449     110.0276558
  42 BEND      3  5  6                  2.1091135     120.8433035
  43 BEND      3  5 17                  1.9327670     110.7393911
  44 BEND      3  5  4                  1.9203449     110.0276558
  45 BEND      3  2  9                  1.9077521     109.3061458
  46 BEND      3  2 10                  1.9444837     111.4107107
  47 BEND      4 17 18                  1.8537962     106.2146991
  48 BEND      4  5 17                  1.0530256      60.3339245
  49 BEND      4 17 18                  1.8537962     106.2146991
  50 BEND      4 17 20                  1.8658134     106.9032323
  51 BEND      4 17 19                  1.9017230     108.9606990
  52 BEND      4 17  5                  0.7903288      45.2825050
  53 BEND      4  5 19                  1.7119879      98.0896815
  54 BEND      4  5  6                  2.1789185     124.8428352
  55 BEND      4 17 19                  1.9017230     108.9606990
  56 BEND      4 17 20                  1.8658134     106.9032323
  57 BEND      4 17 19                  1.9017230     108.9606990
  58 BEND      4 17 19                  1.9017230     108.9606990
  59 BEND      4 17  5                  0.7903288      45.2825050
  60 BEND      4  5 17                  1.0530256      60.3339245
  61 BEND      4  5 19                  1.7119879      98.0896815
  62 BEND      4  5  6                  2.1789185     124.8428352
  63 BEND      4  1  7                  1.9462176     111.5100524
  64 BEND      4  1  8                  1.9301444     110.5891296
  65 BEND      5  4 13                  2.0927766     119.9072644
  66 BEND      5 17 19                  1.1114051      63.6788216
  67 BEND      5 19 17                  1.3712165      78.5649206
  68 BEND      5  4 13                  2.0927766     119.9072644
  69 BEND      5  6 16                  1.8849794     108.0013618
  70 BEND      5  6 14                  1.9406380     111.1903686
  71 BEND      5 17 19                  1.1114051      63.6788216
  72 BEND      5  6 15                  1.9292475     110.5377407
  73 BEND      5 19 17                  1.3712165      78.5649206
  74 BEND      5  3 12                  1.9306420     110.6176372
  75 BEND      5  4 17                  1.2982382      74.3835705
  76 BEND      5  3 11                  1.9164719     109.8057502
  77 BEND      5 17 20                  2.0834712     119.3741054
  78 BEND      5  4 17                  1.2982382      74.3835705
  79 BEND      5  4 17                  1.2982382      74.3835705
  80 BEND      5  4 17                  1.2982382      74.3835705
  81 BEND      5 17 18                  2.0688982     118.5391367
  82 BEND      6  5 17                  1.9922496     114.1474945
  83 BEND      6  5 19                  1.6371852      93.8038019
  84 BEND      7  1  8                  1.8774393     107.5693502
  85 BEND      9  2 10                  1.8781093     107.6077353
  86 BEND     11  3 12                  1.8834015     107.9109547
  87 BEND     13  4 17                  1.9314368     110.6631755
  88 BEND     13  4 17                  1.9314368     110.6631755
  89 BEND     14  6 16                  1.8972597     108.7049715
  90 BEND     14  6 15                  1.9095704     109.4103226
  91 BEND     15  6 16                  1.9013423     108.9388918
  92 BEND     17  5 19                  0.6589710      37.7562578
  93 BEND     18 17 19                  1.8630465     106.7447030
  94 BEND     18 17 20                  2.1164067     121.2611697
  95 BEND     18 17 19                  1.8630465     106.7447030
  96 BEND     19 17 20                  1.8562986     106.3580728
  97 BEND     19 17 20                  1.8562986     106.3580728
  98 TORSION   1  2  3  5              -0.3131683     -17.9432203
  99 TORSION   1  2  3 12               1.7748933     101.6938957
 100 TORSION   1  4  5 17              -1.9448795    -111.4333881
 101 TORSION   1  2  3 11              -2.3890105    -136.8802216
 102 TORSION   1  4 17 18              -2.4409467    -139.8559422
 103 TORSION   1  4  5 19              -1.9413523    -111.2312944
 104 TORSION   1  4  5  6               2.5894509     148.3646066
 105 TORSION   1  4 17 20              -0.1583324      -9.0717801
 106 TORSION   1  4 17 19               1.8411178     105.4882773
 107 TORSION   1  4 17  5               1.8465230     105.7979735
 108 TORSION   1  4  5  3              -0.1459742      -8.3637068
 109 TORSION   2  1  4 17              -1.4864458     -85.1670725
 110 TORSION   2  1  4  5              -0.0577576      -3.3092641
 111 TORSION   2  1  4 13               2.4553586     140.6816852
 112 TORSION   2  3  5 17               1.4196702      81.3411116
 113 TORSION   2  3  5 19               2.0709197     118.6549583
 114 TORSION   2  3  5  6              -2.4661681    -141.3010218
 115 TORSION   2  3  5  4               0.2881417      16.5093054
 116 TORSION   3  2  1  8               2.3193148     132.8869467
 117 TORSION   3  2  1  7              -1.8753720    -107.4509005
 118 TORSION   3  2  1  4               0.2338962      13.4012661
 119 TORSION   3  5 17 18               3.0256600     173.3575474
 120 TORSION   3  5 17 20              -0.2951608     -16.9114683
 121 TORSION   3  5 17 19               1.3578521      77.7991960
 122 TORSION   3  5 17  4              -1.7780373    -101.8740325
 123 TORSION   3  5  6 16               1.2161406      69.6797265
 124 TORSION   3  5  6 14              -0.8640291     -49.5052214
 125 TORSION   3  5  6 15              -2.9885541    -171.2315375
 126 TORSION   3  5  4 17               1.7989053     103.0696813
 127 TORSION   3  5  4 13              -2.6484811    -151.7467873
 128 TORSION   3  5 19 17              -1.9583170    -112.2032992
 129 TORSION   4  5 17 18              -1.4794880     -84.7684201
 130 TORSION   4  5 17 20               1.4828765      84.9625642
 131 TORSION   4  5 17 19               3.1358894     179.6732285
 132 TORSION   4  1  2 10               2.3662729     135.5774496
 133 TORSION   4  5  3 12              -1.8132815    -103.8933782
 134 TORSION   4  5  3 11               2.3930468     137.1114845
 135 TORSION   4  5  6 16              -1.4783605     -84.7038169
 136 TORSION   4  5  6 14               2.7246551     156.1112351
 137 TORSION   4  5  6 15               0.6001301      34.3849191
 138 TORSION   4  5 19 17              -0.0050055      -0.2867934
 139 TORSION   4 17  5 19              -3.1358894    -179.6732285
 140 TORSION   4 17  5  6               2.0546565     117.7231429
 141 TORSION   4 17 19  5               0.0042851       0.2455198
 142 TORSION   4  1  2  9              -1.8300746    -104.8555498
 143 TORSION   5  4  1  8              -2.1457975    -122.9451380
 144 TORSION   5  4 17 18               1.9957157     114.3460843
 145 TORSION   5 19 17 18              -1.9908265    -114.0659541
 146 TORSION   5 19 17 20               2.0099039     115.1590134
 147 TORSION   5  4  1  7               2.0491620     117.4083352
 148 TORSION   5 17  4 13              -2.0351977    -116.6082386
 149 TORSION   5  4 17 19              -0.0054052      -0.3096961
 150 TORSION   5  4 17 20              -2.0048554    -114.8697535
 151 TORSION   5  3  2  9               1.7559897     100.6107971
 152 TORSION   5  3  2 10              -2.4538679    -140.5962764
 153 TORSION   6  5 19 17               2.1941202     125.7138261
 154 TORSION   6  5 17 19              -1.0926394     -62.6036286
 155 TORSION   6  5  3 12               1.7155940      98.2962946
 156 TORSION   6  5  3 11              -0.3612630     -20.6988426
 157 TORSION   6  5 17 18               0.5751684      32.9547228
 158 TORSION   6  5  4 17              -1.7488549    -100.2020052
 159 TORSION   6  5  4 13               0.0869440       4.9815261
 160 TORSION   6  5 17 20              -2.7456524    -157.3142928
 161 TORSION   7  1  2 10               0.2570047      14.7252831
 162 TORSION   7  1  4 17               0.6204737      35.5505268
 163 TORSION   7  1  4 13              -1.7209071     -98.6007154
 164 TORSION   7  1  2  9               2.3438425     134.2922836
 165 TORSION   8  1  2 10              -1.8314939    -104.9368697
 166 TORSION   8  1  4 17               2.7086996     155.1970536
 167 TORSION   8  1  4 13               0.3673187      21.0458113
 168 TORSION   8  1  2  9               0.2553440      14.6301308
 169 TORSION   9  2  3 11              -0.3198526     -18.3262042
 170 TORSION   9  2  3 12              -2.4391341    -139.7520870
 171 TORSION  10  2  3 11               1.7534751     100.4667224
 172 TORSION  10  2  3 12              -0.3658064     -20.9591604
 173 TORSION  11  3  5 17              -2.7586100    -158.0567093
 174 TORSION  11  3  5 19              -2.1073605    -120.7428626
 175 TORSION  12  3  5 17              -0.6817530     -39.0615720
 176 TORSION  12  3  5 19              -0.0305036      -1.7477253
 177 TORSION  13  4  5 17               1.8357989     105.1835314
 178 TORSION  13  4 17 18              -0.0394820      -2.2621543
 179 TORSION  13  4  5 19               1.8393261     105.3856251
 180 TORSION  13  4 17 19              -2.0406029    -116.9179347
 181 TORSION  13  4 17 20               2.2431322     128.5220079
 182 TORSION  14  6  5 17               1.5101541      86.5254578
 183 TORSION  14  6  5 19               0.9339670      53.5123657
 184 TORSION  15  6  5 17              -0.6143709     -35.2008583
 185 TORSION  15  6  5 19              -1.1905580     -68.2139503
 186 TORSION  16  6  5 17              -2.6928614    -154.2895943
 187 TORSION  16  6  5 19               3.0141367     172.6973137
 188 TORSION  17  4  5 19               0.0035272       0.2020937
 189 TORSION  18 17  5 19               1.6678079      95.5583514
 190 TORSION  19  5 17 20              -1.6530129     -94.7106643

     ------------------------------------------
     THE POINT GROUP IS C1 , NAXIS= 0, ORDER= 1
     ------------------------------------------

     DIMENSIONS OF THE SYMMETRY SUBSPACES ARE
 A   =   48

 ..... DONE SETTING UP THE RUN .....
 STEP CPU TIME =     0.10 TOTAL CPU TIME =          0.1 (      0.0 MIN)
 TOTAL WALL CLOCK TIME=          0.1 SECONDS, CPU UTILIZATION IS    76.92%

          -----------------------------
          INTRINSIC REACTION COORDINATE
          -----------------------------
          PACE   =GS2     
          STRIDE = 0.20000 BOHR*SQRT(AMU)
          NPOINT =      50
          NEXTPT =       0
          STOTAL =  0.0000 BOHR*SQRT(AMU)
          SAB    =  0.0000 BOHR*SQRT(AMU)
          NPRT   =       0
          NPUN   =       0

          SADDLE =       T
          TSENGY =       T
          FORWRD =       T
          EVIB   = 0.00050 HARTREE
          FREQ   =     0.0 CM**-1

          STABLZ =       F
          ELBOW  =  175.00 DEGREES
          DELTA  = 0.02500 BOHR

          READQB =       F
          EB     =        0.0000000000 HARTREES
          GBNORM =        0.0000000000 HARTREES/SQRT(AMU)-BOHR

          GCUT   = 0.0000667 HARTREES/SQRT(AMU)-BOHR
          RCUT   = 0.0006667 BOHR
          ACUT   =    5.00 DEGREES
          MXOPT  =      20
          IHUPD  =       2

 ATOMIC MASSES USED (IN AMU) ARE
     C             12.0000
     C             12.0000
     C             12.0000
     C             12.0000
     C             12.0000
     C             12.0000
     H              1.0078
     H              1.0078
     H              1.0078
     H              1.0078
     H              1.0078
     H              1.0078
     H              1.0078
     H              1.0078
     H              1.0078
     H              1.0078
     B             11.0093
     H              1.0078
     H              1.0078
     H              1.0078

 JUMP AWAY FROM SADDLE POINT WILL BE FOUND FROM THE INPUT HESSIAN MATRIX

 COMPUTING WAVEFUNCTION AT TRANSITION STATE...

          ********************
          1 ELECTRON INTEGRALS
          ********************
 ...... END OF ONE-ELECTRON INTEGRALS ......
 STEP CPU TIME =     0.02 TOTAL CPU TIME =          0.1 (      0.0 MIN)
 TOTAL WALL CLOCK TIME=          0.2 SECONDS, CPU UTILIZATION IS    75.00%

          -------------
          GUESS OPTIONS
          -------------
          GUESS =HUCKEL            NORB  =       0          NORDER=       0
          MIX   =       F          PRTMO =       F          PUNMO =       F
          TOLZ  = 1.0E-08          TOLE  = 1.0E-05
          SYMDEN=       F          PURIFY=       F

 INITIAL GUESS ORBITALS GENERATED BY HUCKEL   ROUTINE.
 HUCKEL GUESS REQUIRES     39252 WORDS.

 SYMMETRIES FOR INITIAL GUESS ORBITALS FOLLOW.   BOTH SET(S).
    27 ORBITALS ARE OCCUPIED (    7 CORE ORBITALS).
     8=A        9=A       10=A       11=A       12=A       13=A       14=A   
    15=A       16=A       17=A       18=A       19=A       20=A       21=A   
    22=A       23=A       24=A       25=A       26=A       27=A       28=A   
    29=A       30=A       31=A       32=A       33=A       34=A       35=A   
    36=A       37=A   
 ...... END OF INITIAL ORBITAL SELECTION ......
 STEP CPU TIME =     0.02 TOTAL CPU TIME =          0.1 (      0.0 MIN)
 TOTAL WALL CLOCK TIME=          0.2 SECONDS, CPU UTILIZATION IS    82.35%

                    ----------------------
                    AO INTEGRAL TECHNOLOGY
                    ----------------------
     S,P,L SHELL ROTATED AXIS INTEGRALS, REPROGRAMMED BY
        KAZUYA ISHIMURA (IMS) AND JOSE SIERRA (SYNSTAR).
     S,P,D,L SHELL ROTATED AXIS INTEGRALS PROGRAMMED BY
        KAZUYA ISHIMURA (INSTITUTE FOR MOLECULAR SCIENCE).
     S,P,D,F,G SHELL TO TOTAL QUARTET ANGULAR MOMENTUM SUM 5,
        ERIC PROGRAM BY GRAHAM FLETCHER (ELORET AND NASA ADVANCED
        SUPERCOMPUTING DIVISION, AMES RESEARCH CENTER).
     S,P,D,F,G,L SHELL GENERAL RYS QUADRATURE PROGRAMMED BY
        MICHEL DUPUIS (PACIFIC NORTHWEST NATIONAL LABORATORY).

          --------------------
          2 ELECTRON INTEGRALS
          --------------------

 THE -PK- OPTION IS OFF, THE INTEGRALS ARE NOT IN SUPERMATRIX FORM.
 STORING   15000 INTEGRALS/RECORD ON DISK, USING 12 BYTES/INTEGRAL.
 TWO ELECTRON INTEGRAL EVALUATION REQUIRES   89734 WORDS OF MEMORY.
 SCHWARZ INEQUALITY OVERHEAD:      1163 INTEGRALS, T=        0.01
 II,JST,KST,LST =  1  1  1  1 NREC =         1 INTLOC =    1
 II,JST,KST,LST =  2  1  1  1 NREC =         1 INTLOC =    2
 II,JST,KST,LST =  3  1  1  1 NREC =         1 INTLOC =   34
 II,JST,KST,LST =  4  1  1  1 NREC =         1 INTLOC =  136
 II,JST,KST,LST =  5  1  1  1 NREC =         1 INTLOC = 1344
 II,JST,KST,LST =  6  1  1  1 NREC =         1 INTLOC = 1908
 II,JST,KST,LST =  7  1  1  1 NREC =         1 INTLOC = 6762
 II,JST,KST,LST =  8  1  1  1 NREC =         1 INTLOC = 8432
 II,JST,KST,LST =  9  1  1  1 NREC =         2 INTLOC = 5839
 II,JST,KST,LST = 10  1  1  1 NREC =         2 INTLOC = 9730
 II,JST,KST,LST = 11  1  1  1 NREC =         4 INTLOC = 5131
 II,JST,KST,LST = 12  1  1  1 NREC =         4 INTLOC =11874
 II,JST,KST,LST = 13  1  1  1 NREC =         7 INTLOC =11305
 II,JST,KST,LST = 14  1  1  1 NREC =         8 INTLOC =10510
 II,JST,KST,LST = 15  1  1  1 NREC =         9 INTLOC =11248
 II,JST,KST,LST = 16  1  1  1 NREC =        10 INTLOC =13656
 II,JST,KST,LST = 17  1  1  1 NREC =        12 INTLOC = 2458
 II,JST,KST,LST = 18  1  1  1 NREC =        13 INTLOC = 8352
 II,JST,KST,LST = 19  1  1  1 NREC =        15 INTLOC = 1136
 II,JST,KST,LST = 20  1  1  1 NREC =        16 INTLOC =10893
 II,JST,KST,LST = 21  1  1  1 NREC =        18 INTLOC = 7111
 II,JST,KST,LST = 22  1  1  1 NREC =        20 INTLOC = 5466
 II,JST,KST,LST = 23  1  1  1 NREC =        22 INTLOC = 6504
 II,JST,KST,LST = 24  1  1  1 NREC =        24 INTLOC = 4546
 II,JST,KST,LST = 25  1  1  1 NREC =        35 INTLOC =  438
 II,JST,KST,LST = 26  1  1  1 NREC =        38 INTLOC = 2354
 II,JST,KST,LST = 27  1  1  1 NREC =        41 INTLOC = 8157
 SCHWARZ INEQUALITY TEST SKIPPED        7424 INTEGRAL BLOCKS.
 TOTAL NUMBER OF NONZERO TWO-ELECTRON INTEGRALS =              662109
         45 INTEGRAL RECORDS WERE STORED ON DISK FILE  8.
  ...... END OF TWO-ELECTRON INTEGRALS .....
 STEP CPU TIME =     0.20 TOTAL CPU TIME =          0.3 (      0.0 MIN)
 TOTAL WALL CLOCK TIME=          0.4 SECONDS, CPU UTILIZATION IS    91.89%

          --------------------------
                 RHF SCF CALCULATION
          --------------------------

     NUCLEAR ENERGY =       309.8604851651
     MAXIT =   30     NPUNCH=    2
     EXTRAP=T  DAMP=F  SHIFT=F  RSTRCT=F  DIIS=F  DEM=F  SOSCF=T
     DENSITY MATRIX CONV=  1.00E-05
     SOSCF WILL OPTIMIZE     567 ORBITAL ROTATIONS, SOGTOL=   0.250
     MEMORY REQUIRED FOR RHF ITERS=     49068 WORDS.

 ITER EX DEM     TOTAL ENERGY        E CHANGE  DENSITY CHANGE     ORB. GRAD
   1  0  0     -255.9756639306  -255.9756639306   0.345698301   0.000000000
          ---------------START SECOND ORDER SCF---------------
   2  1  0     -256.3175708327    -0.3419069021   0.105047686   0.028390981
   3  2  0     -256.3316586709    -0.0140878381   0.044896510   0.009247399
   4  3  0     -256.3333233404    -0.0016646695   0.007464238   0.001506897
   5  4  0     -256.3333868541    -0.0000635137   0.002501801   0.000569601
   6  5  0     -256.3333967363    -0.0000098823   0.000997623   0.000226742
   7  6  0     -256.3333981423    -0.0000014060   0.000123406   0.000041549
   8  7  0     -256.3333981996    -0.0000000572   0.000040965   0.000016491
   9  8  0     -256.3333982060    -0.0000000064   0.000012566   0.000003036
  10  9  0     -256.3333982065    -0.0000000005   0.000005796   0.000001166
  11 10  0     -256.3333982065    -0.0000000001   0.000001410   0.000000302

          -----------------
          DENSITY CONVERGED
          -----------------
     TIME TO FORM FOCK OPERATORS=       0.1 SECONDS (       0.0 SEC/ITER)
     TIME TO SOLVE SCF EQUATIONS=       0.1 SECONDS (       0.0 SEC/ITER)

 FINAL RHF ENERGY IS     -256.3333982065 AFTER  11 ITERATIONS

          ------------
          EIGENVECTORS
          ------------

                      1          2          3          4          5
                  -11.1404   -11.0834   -11.0768   -11.0568   -11.0509
                     A          A          A          A          A   
    1  C  1  S   -0.000349  -0.000051  -0.001215  -0.028214   0.991483
    2  C  1  S    0.000103  -0.000017   0.000104  -0.006572   0.037082
    3  C  1  X    0.000022  -0.000006  -0.000104   0.002405   0.000174
    4  C  1  Y    0.000100   0.000024   0.000007   0.003336   0.000219
    5  C  1  Z   -0.000020  -0.000024  -0.000071  -0.000118  -0.000121
    6  C  2  S   -0.000450  -0.000023  -0.007654   0.991524   0.029192
    7  C  2  S    0.000080  -0.000017  -0.005808   0.037212  -0.004489
    8  C  2  X   -0.000148  -0.000016  -0.002504  -0.000226  -0.002298
    9  C  2  Y   -0.000078  -0.000003   0.003239  -0.000062  -0.003464
   10  C  2  Z    0.000149  -0.000021  -0.000427  -0.000225   0.000117
   11  C  3  S   -0.001876  -0.001389   0.991933   0.008624   0.001508
   12  C  3  S   -0.005448   0.000098   0.037244  -0.005291  -0.000005
   13  C  3  X   -0.003568   0.000018   0.000351   0.002688  -0.000007
   14  C  3  Y   -0.001425  -0.000080  -0.000156  -0.003178  -0.000140
   15  C  3  Z    0.001116  -0.000089  -0.000067   0.000414  -0.000038
   16  C  4  S    0.002298  -0.000218  -0.000911  -0.001964  -0.013009
   17  C  4  S   -0.005929   0.000121   0.000123   0.000209  -0.006182
   18  C  4  X    0.000220   0.000131   0.000022  -0.000071   0.003943
   19  C  4  Y    0.004196   0.000012  -0.000005   0.000143  -0.001411
   20  C  4  Z    0.000774  -0.000126  -0.000047   0.000030  -0.000549
   21  C  5  S    0.992273   0.002914   0.002866   0.000548   0.000458
   22  C  5  S    0.034865  -0.005661  -0.005614   0.000046   0.000254
   23  C  5  X   -0.000037  -0.002797   0.003804   0.000109   0.000018
   24  C  5  Y    0.001638   0.002422   0.001638  -0.000103   0.000096
   25  C  5  Z    0.000581   0.002358  -0.001140   0.000048  -0.000023
   26  C  6  S   -0.001953   0.991939   0.001391   0.000035   0.000055
   27  C  6  S   -0.005384   0.037867   0.000221  -0.000032  -0.000034
   28  C  6  X    0.002500  -0.000145  -0.000079   0.000014   0.000004
   29  C  6  Y   -0.002329   0.000032  -0.000058   0.000004  -0.000033
   30  C  6  Z   -0.002073  -0.000138   0.000037  -0.000040  -0.000022
   31  H  7  S   -0.000000   0.000006   0.000015   0.000298  -0.006961
   32  H  8  S   -0.000023  -0.000007  -0.000059   0.000332  -0.007008
   33  H  9  S   -0.000005   0.000006   0.000137  -0.007052  -0.000101
   34  H 10  S   -0.000099   0.000006   0.000171  -0.006991  -0.000078
   35  H 11  S    0.000030  -0.000158  -0.007013   0.000081  -0.000075
   36  H 12  S    0.000048   0.000044  -0.006987   0.000039  -0.000005
   37  H 13  S    0.000077  -0.000118  -0.000065  -0.000048   0.000208
   38  H 14  S   -0.000022  -0.006953  -0.000088  -0.000016  -0.000002
   39  H 15  S    0.000070  -0.006952  -0.000062  -0.000001  -0.000021
   40  H 16  S   -0.000118  -0.006999   0.000007   0.000002   0.000001
   41  B 17  S    0.000299   0.000002   0.000024  -0.000004   0.000020
   42  B 17  S   -0.002086   0.000115  -0.000031   0.000031   0.000085
   43  B 17  X    0.001113  -0.000062   0.000126  -0.000010   0.000063
   44  B 17  Y    0.001408  -0.000066   0.000035  -0.000012   0.000078
   45  B 17  Z    0.002014   0.000030  -0.000009   0.000007  -0.000021
   46  H 18  S   -0.000004   0.000064  -0.000064  -0.000005  -0.000067
   47  H 19  S   -0.001604  -0.000231   0.000057  -0.000032   0.000024
   48  H 20  S   -0.000018  -0.000045   0.000026  -0.000020  -0.000047

                      6          7          8          9         10
                  -11.0396    -7.2992    -1.1248    -1.0000    -0.9480
                     A          A          A          A          A   
    1  C  1  S    0.013936   0.000061  -0.075211   0.098166   0.086283
    2  C  1  S   -0.005038  -0.000028   0.194208  -0.270623  -0.245908
    3  C  1  X   -0.003811  -0.000148   0.022200   0.032730  -0.074547
    4  C  1  Y    0.001436   0.000231  -0.042112   0.039364  -0.017908
    5  C  1  Z    0.000635  -0.000188  -0.005418  -0.000824   0.012448
    6  C  2  S    0.002413  -0.000005  -0.075904   0.123409  -0.067244
    7  C  2  S    0.000115   0.000095   0.196315  -0.342326   0.191567
    8  C  2  X   -0.000161   0.000023   0.045055  -0.027133  -0.002027
    9  C  2  Y    0.000042  -0.000012  -0.005612  -0.015762  -0.094708
   10  C  2  Z    0.000075  -0.000023  -0.001473   0.001737   0.007103
   11  C  3  S    0.001021   0.000055  -0.099956   0.046791  -0.142046
   12  C  3  S    0.000144  -0.000063   0.262647  -0.129034   0.410359
   13  C  3  X    0.000025  -0.000111   0.034425   0.070067  -0.021942
[...]
   6 C       1.0884746 *  2.8864580 *  2.8775285 *  2.8822755 *  3.9296386  
   7 H       5.2170954    3.0766789    3.8596455    3.7674992    2.4307273 *
   8 H       4.4826032    3.8939100    4.5481619    4.4889993    3.7147119  
   9 H       4.8343718    4.2889257    5.2981167    4.2793864    4.1547261  
  10 H       4.9514154    3.1011105    4.2353445    2.9799339 *  2.7980144 *
  11 H       2.7398243 *  3.9694691    4.7063625    3.7374290    4.4795655  
  12 H       3.3378362    3.1610373    4.0526759    2.4971553 *  3.6892530  
  13 H       3.4658770    2.4377173 *  2.4336288 *  3.3967208    2.7305947 *
  14 H       1.7631560 *  3.0604481    3.0805568    2.6715037 *  4.1739997  
  15 H       1.7686540 *  2.9619231 *  2.5372827 *  3.2464823    4.0029408  
  16 H       0.0000000    3.8902639    3.9238907    3.8654451    4.8616551  
  17 B       3.8902639    0.0000000    1.1550609 *  1.1577176 *  1.1562713 *
  18 H       3.9238907    1.1550609 *  0.0000000    1.9554450 *  1.9709157 *
  19 H       3.8654451    1.1577176 *  1.9554450 *  0.0000000    1.9328966 *
  20 H       4.8616551    1.1562713 *  1.9709157 *  1.9328966 *  0.0000000  

  * ... LESS THAN  3.000


          CURRENT CARTESIAN GRADIENT
          ATOM               DE/DX          DE/DY          DE/DZ
          -----------------------------------------------------------
          C                0.0000495269   0.0000991183   0.0001098313
          C               -0.0000882773   0.0000944144  -0.0003428183
          C                0.0001119588  -0.0001208271   0.0000756172
          C                0.0000554455   0.0000576701   0.0000265098
          C                0.0000040297  -0.0000402497   0.0001407707
          C               -0.0000711580  -0.0001114576  -0.0000888725
          H                0.0000170377  -0.0000670933  -0.0000083783
          H                0.0000122227   0.0000509474  -0.0000087975
          H               -0.0002339177   0.0000017267  -0.0001665558
          H               -0.0001059189   0.0000332118   0.0001901939
          H                0.0000417321  -0.0000626700   0.0000962642
          H                0.0000287021   0.0000188768   0.0000635088
          H               -0.0000563367  -0.0000382982  -0.0000068773
          H               -0.0000216030   0.0000269594  -0.0000580158
          H                0.0000150091  -0.0000029362   0.0000027339
          H                0.0000104339   0.0000687701   0.0000052936
          B                0.0000446093   0.0000463550   0.0000931257
          H               -0.0000041184   0.0000711609   0.0000075080
          H                0.0001167512   0.0001595022  -0.0000765691
          H                0.0000738710  -0.0002851811  -0.0000544724


                     --------------------
                     INTERNAL COORDINATES
                     --------------------

                 - - ATOMS - -         COORDINATE      COORDINATE
 NO.   TYPE    I  J  K  L  M  N        (BOHR,RAD)       (ANG,DEG)
 ----------------------------------------------------------------
   1 STRETCH   1  4                     2.8897794       1.5292055
   2 STRETCH   1  7                     2.0540443       1.0869535
   3 STRETCH   1  2                     2.9317419       1.5514111
   4 STRETCH   1  8                     2.0605383       1.0903900
   5 STRETCH   2 10                     2.0535198       1.0866760
   6 STRETCH   2  9                     2.0536318       1.0867352
   7 STRETCH   2  3                     2.9309765       1.5510061
   8 STRETCH   3 11                     2.0598503       1.0900259
   9 STRETCH   3 12                     2.0546905       1.0872955
  10 STRETCH   3  5                     2.9014674       1.5353906
  11 STRETCH   4 13                     2.0451453       1.0822444
  12 STRETCH   4  5                     2.5589557       1.3541411
  13 STRETCH   4 17                     3.7969301       2.0092490
  14 STRETCH   4  5                     2.5589557       1.3541411
  15 STRETCH   4 17                     3.7969301       2.0092490
  16 STRETCH   5  6                     2.8779728       1.5229577
  17 STRETCH   5 19                     4.2948972       2.2727619
  18 STRETCH   5 17                     3.9778328       2.1049786
  19 STRETCH   6 15                     2.0500080       1.0848176
  20 STRETCH   6 14                     2.0525500       1.0861627
  21 STRETCH   6 16                     2.0569187       1.0884746
  22 STRETCH  17 19                     2.1877691       1.1577176
  23 STRETCH  17 20                     2.1850360       1.1562713
  24 STRETCH  17 19                     2.1877691       1.1577176
  25 STRETCH  17 18                     2.1827485       1.1550609
  26 BEND      1  4  5                  1.9521804     111.8517005
  27 BEND      1  4 13                  2.1188889     121.4033920
  28 BEND      1  4  5                  1.9521804     111.8517005
  29 BEND      1  4 17                  1.9288610     110.5155929
  30 BEND      1  2  3                  1.8384674     105.3364204
  31 BEND      1  2  9                  1.9541094     111.9622238
  32 BEND      1  4 17                  1.9288610     110.5155929
  33 BEND      1  2 10                  1.9171285     109.8433721
  34 BEND      2  3 11                  1.9446411     111.4197261
  35 BEND      2  1  8                  1.9410142     111.2119201
  36 BEND      2  1  4                  1.8078875     103.5843207
  37 BEND      2  1  7                  1.9644379     112.5539993
  38 BEND      2  3  5                  1.8208462     104.3268032
  39 BEND      2  3 12                  1.9694249     112.8397373
  40 BEND      3  5 19                  1.5607434      89.4240070
  41 BEND      3  5  4                  1.9316551     110.6756875
  42 BEND      3  5  6                  2.1059142     120.6599952
  43 BEND      3  5 17                  1.9099771     109.4336263
  44 BEND      3  5  4                  1.9316551     110.6756875
  45 BEND      3  2  9                  1.9511468     111.7924752
  46 BEND      3  2 10                  1.9168416     109.8269326
  47 BEND      4 17 18                  1.7420977      99.8148460
  48 BEND      4  5 17                  1.1693626      66.9995432
  49 BEND      4 17 18                  1.7420977      99.8148460
  50 BEND      4 17 20                  1.5763171      90.3163148
  51 BEND      4 17 19                  2.0558746     117.7929390
  52 BEND      4 17  5                  0.6692216      38.3435752
  53 BEND      4  5 19                  1.6598627      95.1031262
  54 BEND      4  5  6                  2.2201237     127.2037207
  55 BEND      4 17 19                  2.0558746     117.7929390
  56 BEND      4 17 20                  1.5763171      90.3163148
  57 BEND      4 17 19                  2.0558746     117.7929390
  58 BEND      4 17 19                  2.0558746     117.7929390
  59 BEND      4 17  5                  0.6692216      38.3435752
  60 BEND      4  5 17                  1.1693626      66.9995432
  61 BEND      4  5 19                  1.6598627      95.1031262
  62 BEND      4  5  6                  2.2201237     127.2037207
  63 BEND      4  1  7                  1.9670244     112.7021942
  64 BEND      4  1  8                  1.8994629     108.8312077
  65 BEND      5  4 13                  2.1685910     124.2511105
  66 BEND      5 17 19                  1.4461807      82.8600496
  67 BEND      5 19 17                  1.1655225      66.7795207
  68 BEND      5  4 13                  2.1685910     124.2511105
  69 BEND      5  6 16                  1.8966842     108.6720005
  70 BEND      5  6 14                  1.9325023     110.7242241
  71 BEND      5 17 19                  1.4461807      82.8600496
  72 BEND      5  6 15                  1.9376191     111.0173955
  73 BEND      5 19 17                  1.1655225      66.7795207
  74 BEND      5  3 12                  1.9589502     112.2395793
  75 BEND      5  4 17                  1.3030084      74.6568816
  76 BEND      5  3 11                  1.8873801     108.1389157
  77 BEND      5 17 20                  2.0979538     120.2039003
  78 BEND      5  4 17                  1.3030084      74.6568816
  79 BEND      5  4 17                  1.3030084      74.6568816
  80 BEND      5  4 17                  1.3030084      74.6568816
  81 BEND      5 17 18                  1.8019206     103.2424431
  82 BEND      6  5 17                  1.8200000     104.2783200
  83 BEND      6  5 19                  1.6899147      96.8249828
  84 BEND      7  1  8                  1.8835019     107.9167078
  85 BEND      9  2 10                  1.8860847     108.0646938
  86 BEND     11  3 12                  1.8816944     107.8131472
  87 BEND     13  4 17                  1.7404131      99.7183278
  88 BEND     13  4 17                  1.7404131      99.7183278
  89 BEND     14  6 16                  1.8909716     108.3446906
  90 BEND     14  6 15                  1.9038563     109.0829333
  91 BEND     15  6 16                  1.9013663     108.9402650
  92 BEND     17  5 19                  0.5298895      30.3604297
  93 BEND     18 17 19                  2.0149859     115.4501857
  94 BEND     18 17 20                  2.0423349     117.0171718
  95 BEND     18 17 19                  2.0149859     115.4501857
  96 BEND     19 17 20                  1.9773902     113.2961132
  97 BEND     19 17 20                  1.9773902     113.2961132
  98 TORSION   1  2  3  5               0.3243092      18.5815471
  99 TORSION   1  2  3 12               2.4553918     140.6835874
 100 TORSION   1  4  5 17              -1.8561708    -106.3507504
 101 TORSION   1  2  3 11              -1.7080459     -97.8638206
 102 TORSION   1  4 17 18              -2.6703397    -152.9991943
 103 TORSION   1  4  5 19              -1.6509755     -94.5939274
 104 TORSION   1  4  5  6               2.8420710     162.8386733
 105 TORSION   1  4 17 20              -0.6193316     -35.4850869
 106 TORSION   1  4 17 19               1.4181999      81.2568670
 107 TORSION   1  4 17  5               1.8853872     108.0247275
 108 TORSION   1  4  5  3              -0.0572634      -3.2809512
 109 TORSION   2  1  4 17              -1.1532245     -66.0748992
 110 TORSION   2  1  4  5               0.2626245      15.0472768
 111 TORSION   2  1  4 13               3.1040027     177.8462536
 112 TORSION   2  3  5 17               1.0825130      62.0234251
 113 TORSION   2  3  5 19               1.4888228      85.3032657
 114 TORSION   2  3  5  6              -3.0909818    -177.1002123
 115 TORSION   2  3  5  4              -0.1733834      -9.9341382
 116 TORSION   3  2  1  8               1.6852567      96.5580938
 117 TORSION   3  2  1  7              -2.4820242    -142.2095088
 118 TORSION   3  2  1  4              -0.3522898     -20.1847168
 119 TORSION   3  5 17 18               2.8969281     165.9817560
 120 TORSION   3  5 17 20              -1.0718373     -61.4117542
 121 TORSION   3  5 17 19               0.8977091      51.4349426
 122 TORSION   3  5 17  4              -1.8306920    -104.8909267
 123 TORSION   3  5  6 16               1.0660366      61.0793992
 124 TORSION   3  5  6 14              -1.0089071     -57.8061208
 125 TORSION   3  5  6 15              -3.1263609    -179.1272826
 126 TORSION   3  5  4 17               1.7989074     103.0697993
 127 TORSION   3  5  4 13              -2.8885356    -165.5008970
 128 TORSION   3  5 19 17              -2.3123926    -132.4903368
 129 TORSION   4  5 17 18              -1.5555651     -89.1273173
 130 TORSION   4  5 17 20               0.7588547      43.4791725
 131 TORSION   4  5 17 19               2.7284011     156.3258693
 132 TORSION   4  1  2 10               1.7110597      98.0364968
 133 TORSION   4  5  3 12              -2.3113430    -132.4302012
 134 TORSION   4  5  3 11               1.8984076     108.7707435
 135 TORSION   4  5  6 16              -1.8115819    -103.7959967
 136 TORSION   4  5  6 14               2.3966597     137.3184834
 137 TORSION   4  5  6 15               0.2792059      15.9973215
 138 TORSION   4  5 19 17              -0.3801760     -21.7824814
 139 TORSION   4 17  5 19              -2.7284011    -156.3258693
 140 TORSION   4 17  5  6               2.1770350     124.7349151
 141 TORSION   4 17 19  5               0.2854470      16.3549070
 142 TORSION   4  1  2  9              -2.4765898    -141.8981422
 143 TORSION   5  4  1  8              -1.8039190    -103.3569453
 144 TORSION   5  4 17 18               1.7274584      98.9760782
 145 TORSION   5 19 17 18              -1.7681329    -101.3065553
 146 TORSION   5 19 17 20               2.0921759     119.8728500
 147 TORSION   5  4  1  7               2.3906319     136.9731167
 148 TORSION   5 17  4 13              -2.1473389    -123.0334540
 149 TORSION   5  4 17 19              -0.4671873     -26.7678605
 150 TORSION   5  4 17 20              -2.5047188    -143.5098144
 151 TORSION   5  3  2  9               2.4505302     140.4050395
 152 TORSION   5  3  2 10              -1.7392331     -99.6507135
 153 TORSION   6  5 19 17               1.8620139     106.6855375
 154 TORSION   6  5 17 19              -1.3777492     -78.9392156
 155 TORSION   6  5  3 12               1.0542439      60.4037246
 156 TORSION   6  5  3 11              -1.0191908     -58.3953307
 157 TORSION   6  5 17 18               0.6214698      35.6075978
 158 TORSION   6  5  4 17              -1.5849436     -90.8105763
 159 TORSION   6  5  4 13               0.0107988       0.6187275
 160 TORSION   6  5 17 20               2.9358897     168.2140876
 161 TORSION   7  1  2 10              -0.4186747     -23.9882952
 162 TORSION   7  1  4 17               0.9747828      55.8509407
 163 TORSION   7  1  4 13              -1.0511753     -60.2279065
 164 TORSION   7  1  2  9               1.6768611      96.0770658
 165 TORSION   8  1  2 10              -2.5345792    -145.2206926
 166 TORSION   8  1  4 17               3.0634172     175.5208788
 167 TORSION   8  1  4 13               1.0374592      59.4420315
 168 TORSION   8  1  2  9              -0.4390434     -25.1553316
 169 TORSION   9  2  3 11               0.4181752      23.9596719
 170 TORSION   9  2  3 12              -1.7015725     -97.4929201
 171 TORSION  10  2  3 11               2.5115972     143.9039189
 172 TORSION  10  2  3 12               0.3918496      22.4513269
 173 TORSION  11  3  5 17              -3.1288813    -179.2716933
 174 TORSION  11  3  5 19              -2.7225714    -155.9918527
 175 TORSION  12  3  5 17              -1.0554466     -60.4726380
 176 TORSION  12  3  5 19              -0.6491368     -37.1927974
 177 TORSION  13  4  5 17               1.5957424      91.4293037
 178 TORSION  13  4 17 18              -0.4198804     -24.0573758
 179 TORSION  13  4  5 19               1.8009377     103.1861267
 180 TORSION  13  4 17 19              -2.6145262    -149.8013145
 181 TORSION  13  4 17 20               1.6311277      93.4567316
 182 TORSION  14  6  5 17               1.1442293      65.5595070
 183 TORSION  14  6  5 19               0.6211047      35.5866784
 184 TORSION  15  6  5 17              -0.9732245     -55.7616548
 185 TORSION  15  6  5 19              -1.4963490     -85.7344835
 186 TORSION  16  6  5 17              -3.0640123    -175.5549730
 187 TORSION  16  6  5 19               2.6960485     154.4721983
 188 TORSION  17  4  5 19               0.2051953      11.7568230
 189 TORSION  18 17  5 19               1.9992190     114.5468134
 190 TORSION  19  5 17 20              -1.9695464    -112.8466968

 THE NUCLEAR REPULSION AT THE IRC POINT IS      307.9150802842

 * * * IRC RESTART INFORMATION * * *
 COORDINATES FOR $DATA AND ENTIRE $IRC GROUP FOLLOW

 COORDINATES OF SYMMETRY UNIQUE ATOMS (ANGS)
   ATOM   CHARGE       X              Y              Z
 ------------------------------------------------------------
 C           6.0  -0.2886553562   1.1777868400  -0.0088268086
 C           6.0  -1.0547442815  -0.0676491205   0.5097032939
 C           6.0  -0.2112067750  -1.2870298607   0.0545384885
 C           6.0   1.1294656097   0.6555459068  -0.2426361642
 C           6.0   1.1727314643  -0.6978585581  -0.2537086584
 C           6.0   2.2874774067  -1.5790988662  -0.8015747807
 H           1.0  -0.3197176246   2.0080237661   0.6920367634
 H           1.0  -0.6968872293   1.5249827886  -0.9584330652
 H           1.0  -2.0690347140  -0.1114329500   0.1220290326
 H           1.0  -1.1095222276  -0.0417228090   1.5946880323
 H           1.0  -0.6059460059  -1.7240487097  -0.8627139040
 H           1.0  -0.1661696023  -2.0727354487   0.8047716577
 H           1.0   1.9060419222   1.2931028353  -0.6447596656
 H           1.0   2.4905869633  -2.4058051738  -0.1269988445
 H           1.0   3.1984344341  -1.0084125987  -0.9475324532
 H           1.0   1.9696653276  -1.9882127994  -1.7588616681
 B           5.0   1.9849952612   0.1367063002   1.4997633431
 H           1.0   3.0965478027   0.2936800421   1.2277784359
 H           1.0   1.7227473150  -0.9005095976   1.9421651226
 H           1.0   1.4460242964   1.0103693978   2.0319160238
 $IRC   PACE=GS2        STRIDE= 0.20000   NPOINT=??
        STOTAL=  6.581920   NEXTPT=  34
        NPRT= 0   NPUN= 0   SADDLE=.FALSE.
        GA(   1)= 4.952687234E-05, 9.911833287E-05, 1.098313149E-04
        GA(   4)=-8.827729689E-05, 9.441442112E-05,-3.428182961E-04
        GA(   7)= 1.119588158E-04,-1.208271144E-04, 7.561719135E-05
        GA(  10)= 5.544551893E-05, 5.767010354E-05, 2.650979392E-05
        GA(  13)= 4.029733149E-06,-4.024974040E-05, 1.407706581E-04
        GA(  16)=-7.115796458E-05,-1.114575827E-04,-8.887246435E-05
        GA(  19)= 1.703766607E-05,-6.709325945E-05,-8.378307519E-06
        GA(  22)= 1.222269565E-05, 5.094741585E-05,-8.797489832E-06
        GA(  25)=-2.339176728E-04, 1.726691201E-06,-1.665557621E-04
        GA(  28)=-1.059188765E-04, 3.321183002E-05, 1.901938686E-04
        GA(  31)= 4.173207235E-05,-6.266997805E-05, 9.626415060E-05
        GA(  34)= 2.870211574E-05, 1.887681030E-05, 6.350875333E-05
        GA(  37)=-5.633669236E-05,-3.829816100E-05,-6.877257808E-06
        GA(  40)=-2.160304944E-05, 2.695940733E-05,-5.801583261E-05
        GA(  43)= 1.500906306E-05,-2.936244581E-06, 2.733872780E-06
        GA(  46)= 1.043391480E-05, 6.877005471E-05, 5.293557056E-06
        GA(  49)= 4.460930694E-05, 4.635501716E-05, 9.312572150E-05
        GA(  52)=-4.118409951E-06, 7.116092770E-05, 7.508010359E-06
        GA(  55)= 1.167512186E-04, 1.595022020E-04,-7.656910952E-05
        GA(  58)= 7.387097102E-05,-2.851811317E-04,-5.447237409E-05
 $END   
 A GS2 RESTART ALSO REQUIRES THE UPDATED $HESS GROUP FROM THE PUNCH FILE
 ......DONE WITH THIS PORTION OF THE IRC......
 STEP CPU TIME =     0.01 TOTAL CPU TIME =         78.7 (      1.3 MIN)
 TOTAL WALL CLOCK TIME=         81.2 SECONDS, CPU UTILIZATION IS    96.82%
               580000  WORDS OF DYNAMIC MEMORY USED
 EXECUTION OF GAMESS TERMINATED NORMALLY Sat Nov 13 21:44:35 2021
 DDI: 263640 bytes (0.3 MB / 0 MWords) used by master data server.

 ----------------------------------------
 CPU timing information for all processes
 ========================================
 0: 73.520 + 5.143 = 78.664
 ----------------------------------------
 ddikick.x: exited gracefully.
----- accounting info -----
Files used on the master node chemcompute-node-0.novalocal were:
-rw-r--r--. 1 chemcomp chemcomp    60745 Nov 13 21:43 /scratch/306198/342100.F05
-rw-rw-r--. 1 chemcomp chemcomp  8100720 Nov 13 21:44 /scratch/306198/342100.F08
-rw-rw-r--. 1 chemcomp chemcomp 65536000 Nov 13 21:44 /scratch/306198/342100.F10
Sat Nov 13 21:44:40 UTC 2021
0.128u 0.104s 1:27.01 0.2%	0+0k 120+328io 0pf+0w
Finishing Up...
Looking for IR data...
Looking for Raman data...
vibramans not found
Looking for thermodynamics data...
Looking for UV-Vis data...
306198
