----- GAMESS execution script 'rungms' -----
This job is running on host chemcompute-node-1.novalocal
under operating system Linux at Sat Nov 13 21:33:21 UTC 2021
SLURM has assigned the following compute nodes to this run:
chemcompute-node-1
Available scratch disk space (Kbyte units) at beginning of the job is
Filesystem     1K-blocks    Used Available Use% Mounted on
/dev/sda1      125817836 8927756 116890080   8% /
GAMESS temporary binary files will be written to /scratch/306195
GAMESS supplementary output files will be written to /data/slurm/342097
Copying input file 342097.inp to your run's scratch directory...
The generated host list is
chemcompute-node-1.novalocal

 Distributed Data Interface kickoff program.
 Initiating 1 compute processes on 1 nodes to run the following command:
 /data/gamess-2019R1-ddi/gamess.00.x 342097 

          ******************************************************
          *         GAMESS VERSION = 30 JUN 2019 (R1)          *
          *             FROM IOWA STATE UNIVERSITY             *
          * M.W.SCHMIDT, K.K.BALDRIDGE, J.A.BOATZ, S.T.ELBERT, *
          *   M.S.GORDON, J.H.JENSEN, S.KOSEKI, N.MATSUNAGA,   *
          *          K.A.NGUYEN, S.J.SU, T.L.WINDUS,           *
          *       TOGETHER WITH M.DUPUIS, J.A.MONTGOMERY       *
          *         J.COMPUT.CHEM.  14, 1347-1363(1993)        *
          **************** 64 BIT LINUX VERSION ****************

  SINCE 1993, STUDENTS AND POSTDOCS WORKING AT IOWA STATE UNIVERSITY
  AND ALSO IN THEIR VARIOUS JOBS AFTER LEAVING ISU HAVE MADE IMPORTANT
  CONTRIBUTIONS TO THE CODE:
     IVANA ADAMOVIC, CHRISTINE AIKENS, YURI ALEXEEV, POOJA ARORA,
     ANDREY ASADCHEV, ROB BELL, PRADIPTA BANDYOPADHYAY, JONATHAN BENTZ,
     COLLEEN BERTONI, BRETT BODE, KURT BRORSEN, CALEB CARLIN, GALINA CHABAN,
     WEI CHEN, CHEOL HO CHOI, PAUL DAY, ALBERT DEFUSCO, NUWAN DESILVA,
     TIM DUDLEY, DMITRI FEDOROV, ALEX FINDLATER, GRAHAM FLETCHER, 
     MARK FREITAG, KURT GLAESEMANN, ANASTASIA GUNINA,
     DAN KEMP, GRANT MERRILL, NORIYUKI MINEZAWA, JONATHAN MULLIN,
     TAKESHI NAGATA, SEAN NEDD, HEATHER NETZLOFF, BOSILJKA NJEGIC, RYAN OLSON,
     MIKE PAK, BUU PHAM,
     SPENCER PRUITT, LUKE ROSKOP, JIM SHOEMAKER, LYUDMILA SLIPCHENKO,
     TONY SMITH, SAROM SOK LEANG, JIE SONG, TETSUYA TAKETSUGU, SIMON WEBB,
     PENG XU, SOOHAENG YOO, FEDERICO ZAHARIEV

  ADDITIONAL CODE HAS BEEN PROVIDED BY COLLABORATORS IN OTHER GROUPS:
     IOWA STATE UNIVERSITY:
          JOE IVANIC, AARON WEST, LAIMUTIS BYTAUTAS, KLAUS RUEDENBERG
     UNIVERSITY OF TOKYO: KIMIHIKO HIRAO, TAKAHITO NAKAJIMA,
          TAKAO TSUNEDA, MUNEAKI KAMIYA, SUSUMU YANAGISAWA,
          KIYOSHI YAGI, MAHITO CHIBA, SEIKEN TOKURA, NAOAKI KAWAKAMI
     UNIVERSITY OF AARHUS: FRANK JENSEN
     UNIVERSITY OF IOWA: VISVALDAS KAIRYS, HUI LI
     NATIONAL INST. OF STANDARDS AND TECHNOLOGY: WALT STEVENS, DAVID GARMER
     UNIVERSITY OF PISA: BENEDETTA MENNUCCI, JACOPO TOMASI
     UNIVERSITY OF MEMPHIS: HENRY KURTZ, PRAKASHAN KORAMBATH
     UNIVERSITY OF ALBERTA: TOBY ZENG, MARIUSZ KLOBUKOWSKI
     UNIVERSITY OF NEW ENGLAND: MARK SPACKMAN
     MIE UNIVERSITY: HIROAKI UMEDA
     NAT. INST. OF ADVANCED INDUSTRIAL SCIENCE AND TECHNOLOGY: KAZUO KITAURA
     MICHIGAN STATE UNIVERSITY:
          KAROL KOWALSKI, MARTA WLOCH, JEFFREY GOUR, JESSE LUTZ,
          WEI LI, JUN SHEN, J. EMILIANO DEUSTUA, PIOTR PIECUCH
     UNIVERSITY OF MINNESOTA:
          YINAN SHU
     UNIVERSITY OF SILESIA: MONIKA MUSIAL, STANISLAW KUCHARSKI
     FACULTES UNIVERSITAIRES NOTRE-DAME DE LA PAIX:
          OLIVIER QUINET, BENOIT CHAMPAGNE
     UNIVERSITY OF CALIFORNIA - SANTA BARBARA: BERNARD KIRTMAN
     INSTITUTE FOR MOLECULAR SCIENCE:
          KAZUYA ISHIMURA, MICHIO KATOUDA, AND SHIGERU NAGASE
     UNIVERSITY OF NOTRE DAME: ANNA POMOGAEVA, DAN CHIPMAN
     KYUSHU UNIVERSITY:
          HARUYUKI NAKANO,
          FENG LONG GU, JACEK KORCHOWIEC, MARCIN MAKOWSKI, AND YURIKO AOKI,
          HIROTOSHI MORI AND EISAKU MIYOSHI
     PENNSYLVANIA STATE UNIVERSITY:
          TZVETELIN IORDANOV, CHET SWALINA, JONATHAN SKONE,
          SHARON HAMMES-SCHIFFER
     WASEDA UNIVERSITY:
          MASATO KOBAYASHI, TOMOKO AKAMA, TSUGUKI TOUMA,
          TAKESHI YOSHIKAWA, YASUHIRO IKABATA, JUNJI SEINO,
          YUYA NAKAJIMA, HIROMI NAKAI
     NANJING UNIVERSITY: SHUHUA LI
     UNIVERSITY OF NEBRASKA:
          PEIFENG SU, DEJUN SI, NANDUN THELLAMUREGE, YALI WANG, HUI LI
     UNIVERSITY OF ZURICH: ROBERTO PEVERATI, KIM BALDRIDGE
     N. COPERNICUS UNIVERSITY AND JACKSON STATE UNIVERSITY:
          MARIA BARYSZ
     UNIVERSITY OF COPENHAGEN: Jimmy Kromann, CASPER STEINMANN
     TOKYO INSTITUTE OF TECHNOLOGY: HIROYA NAKATA
     NAGOYA UNIVERSITY: YOSHIO NISHIMOTO, STEPHAN IRLE
     MOSCOW STATE UNIVERSITY: VLADIMIR MIRONOV
     A.N.NESMEYANOV INSTITUTE OF ORGANOELEMENT COMPOUNDS OF RUSSIAN ACADEMY OF SCIENCES:
          IGOR S. GERASIMOV

 EXECUTION OF GAMESS BEGUN Sat Nov 13 21:33:23 2021

            ECHO OF THE FIRST FEW INPUT CARDS -
 INPUT CARD>!File created by the GAMESS Input Deck Generator Plugin for Avogadro            
 INPUT CARD> $BASIS GBASIS=STO NGAUSS=3 $END                                                
 INPUT CARD> $CONTRL SCFTYP=RHF RUNTYP=SADPOINT NZVAR=1 mult=1  ICHARG=0 $END               
 INPUT CARD> $STATPT hssend=.t. OPTTOL=0.0005 NSTEP=50 $END                                 
 INPUT CARD> $STATPT HESS=calc ihrep=5 $END                                                 
 INPUT CARD> $FORCE nvib=2 $END                                                             
 INPUT CARD> $ZMAT DLC=.t. auto=.t. nonvdw(1)=17,4,19,5,17,19,5,4 $END                      
 INPUT CARD>!$ZMAT IFZMAT(1)=1,17,4,1,19,5,1,17,19, fvalue(1)=2.08,2.01,1.98 $END           
 INPUT CARD>                                                                                
 INPUT CARD> $DATA                                                                          
 INPUT CARD>Title                                                                           
 INPUT CARD>C1                                                                              
 INPUT CARD>C     6.0    -0.29330495     1.17601943     0.08229428                          
 INPUT CARD>C     6.0    -1.15743196    -0.11404254     0.08853382                          
 INPUT CARD>C     6.0    -0.17255464    -1.28207302     0.36064646                          
 INPUT CARD>C     6.0     1.12004960     0.66903788    -0.20710863                          
 INPUT CARD>C     6.0     1.22320974    -0.73132300    -0.04805874                          
 INPUT CARD>C     6.0     2.13767982    -1.56014442    -0.96486378                          
 INPUT CARD>H     1.0    -0.36322448     1.70079851     1.03359067                          
 INPUT CARD>H     1.0    -0.61787975     1.86720169    -0.69313294                          
 INPUT CARD>H     1.0    -1.61994529    -0.24662702    -0.88664335                          
 INPUT CARD>H     1.0    -1.95136285    -0.07679278     0.82959020                          
 INPUT CARD>H     1.0    -0.41244557    -2.16415548    -0.22879741                          
 INPUT CARD>H     1.0    -0.19049627    -1.56877625     1.40778518                          
 INPUT CARD>H     1.0     1.79879427     1.21442163    -0.84632516                          
 INPUT CARD>H     1.0     2.19718409    -2.59258223    -0.63671559                          
 INPUT CARD>H     1.0     3.13849831    -1.13991308    -0.98965955                          
 INPUT CARD>H     1.0     1.72948432    -1.53559256    -1.97424984                          
 INPUT CARD>B     5.0     2.19995332     0.27572140     1.52653205                          
 INPUT CARD>H     1.0     3.29460073     0.55081421     1.29176283                          
 INPUT CARD>H     1.0     2.11043978    -1.70151210     1.47235441                          
 INPUT CARD>H     1.0     1.51347458     0.57796431     2.40175915                          
 INPUT CARD> $END                                                                           
    1000000 WORDS OF MEMORY AVAILABLE

     BASIS OPTIONS
     -------------
     GBASIS=STO          IGAUSS=       3      POLAR=NONE    
     NDFUNC=       0     NFFUNC=       0     DIFFSP=       F
     NPFUNC=       0      DIFFS=       F     BASNAM=        


     RUN TITLE
     ---------
 Title                                                                           

 THE POINT GROUP OF THE MOLECULE IS C1      
 THE ORDER OF THE PRINCIPAL AXIS IS     0

 ATOM      ATOMIC                      COORDINATES (BOHR)
           CHARGE         X                   Y                   Z
 C           6.0    -0.5542659863        2.2223544789        0.1555136396
 C           6.0    -2.1872292538       -0.2155091515        0.1673046604
 C           6.0    -0.3260809875       -2.4227667041        0.6815229878
 C           6.0     2.1165868367        1.2642982686       -0.3913785604
 C           6.0     2.3115312341       -1.3820000785       -0.0908178499
 C           6.0     4.0396291093       -2.9482454551       -1.8233281597
 H           1.0    -0.6863947392        3.2140431442        1.9532031498
 H           1.0    -1.1676234209        3.5284995579       -1.3098313297
 H           1.0    -3.0612527132       -0.4660574890       -1.6755129803
 H           1.0    -3.6875410891       -0.1451173120        1.5676981601
 H           1.0    -0.7794091121       -4.0896608520       -0.4323644116
 H           1.0    -0.3599857520       -2.9645572485        2.6603282398
 H           1.0     3.3992282786        2.2949241143       -1.5993226489
 H           1.0     4.1520758747       -4.8992700153       -1.2032179972
 H           1.0     5.9309018188       -2.1541233710       -1.8701853706
 H           1.0     3.2682514649       -2.9018491672       -3.7307912289
 B           5.0     4.1573089606        0.5210378950        2.8847272860
 H           1.0     6.2258926186        1.0408879270        2.4410777898
 H           1.0     3.9881528978       -3.2153916338        2.7823463917
 H           1.0     2.8600522456        1.0921941766        4.5386666820

          INTERNUCLEAR DISTANCES (ANGS.)
          ------------------------------

                1 C          2 C          3 C          4 C          5 C     

   1 C       0.0000000    1.5527441 *  2.4767477 *  1.5291682 *  2.4402385 *
   2 C       1.5527441 *  0.0000000    1.5518775 *  2.4264257 *  2.4631581 *
   3 C       2.4767477 *  1.5518775 *  0.0000000    2.4083200 *  1.5551604 *
   4 C       1.5291682 *  2.4264257 *  2.4083200 *  0.0000000    1.4131346 *
   5 C       2.4402385 *  2.4631581 *  1.5551604 *  1.4131346 *  0.0000000  
   6 C       3.8069436    3.7494825    2.6779627 *  2.5649596 *  1.5374433 *
   7 H       1.0886903 *  2.1948909 *  3.0637773    2.1917953 *  3.0987020  
   8 H       1.0882872 *  2.1971455 *  3.3506263    2.1661520 *  3.2493171  
   9 H       2.1731861 *  1.0874133 *  2.1732050 *  2.9677907 *  3.0036120  
  10 H       2.2084261 *  1.0866823 *  2.1992652 *  3.3263467    3.3580632  
  11 H       3.3567456    2.2042384 *  1.0876862 *  3.2211794    2.1819816 *
  12 H       3.0498195    2.1889813 *  1.0858269 *  3.0550327    2.1953073 *
  13 H       2.2892549 *  3.3731368    3.4022761    1.0801553 *  2.1804699 *
  14 H       4.5740430    4.2335085    2.8857975 *  3.4616393    2.1816115 *
  15 H       4.2766695    4.5464193    3.5786321    2.8211389 *  2.1729906 *
  16 H       3.9590264    3.8223248    3.0222120    2.8904315 *  2.1478770 *
  17 B       3.0187242    3.6731173    3.0683557    2.0800000 *  2.1089103 *
  18 H       3.8375465    4.6594409    4.0308336    2.6437218 *  2.7802263 *
  19 H       3.9988053    3.8876734    2.5736914 *  3.0693608    2.0100000 *
  20 H       3.0003399    3.6005037    3.2355176    2.6399373 *  2.7928650 *

                6 C          7 H          8 H          9 H         10 H     

   1 C       3.8069436    1.0886903 *  1.0882872 *  2.1731861 *  2.2084261 *
   2 C       3.7494825    2.1948909 *  2.1971455 *  1.0874133 *  1.0866823 *
   3 C       2.6779627 *  3.0637773    3.3506263    2.1732050 *  2.1992652 *
   4 C       2.5649596 *  2.1917953 *  2.1661520 *  2.9677907 *  3.3263467  
   5 C       1.5374433 *  3.0987020    3.2493171    3.0036120    3.3580632  
   6 C       0.0000000    4.5696927    4.4060921    3.9813557    4.7053870  
   7 H       4.5696927    0.0000000    1.7533151 *  3.0098359    2.3924110 *
   8 H       4.4060921    1.7533151 *  0.0000000    2.3473077 *  2.8064172 *
   9 H       3.9813557    3.0098359    2.3473077 *  0.0000000    1.7561717 *
  10 H       4.7053870    2.3924110 *  2.8064172 *  1.7561717 *  0.0000000  
  11 H       2.7220879 *  4.0661918    4.0632070    2.3596043 *  2.8009880 *
  12 H       3.3241452    3.2954477    4.0499948    3.0092865    2.3792804 *
  13 H       2.7976976 *  2.9060232 *  2.5079679 *  3.7180733    4.3057642  
  14 H       1.0849654 *  5.2705534    5.2742241    4.4873652    5.0684999  
  15 H       1.0857471 *  4.9421904    4.8208965    4.8426602    5.5087731  
  16 H       1.0890760 *  4.8888405    4.3278617    3.7500665    4.8516236  
  17 B       3.0953731    2.9738387 *  3.9242713    4.5483941    4.2241473  
  18 H       3.2995418    3.8430199    4.5804138    5.4345311    5.3035486  
  19 H       2.4414666 *  4.2293316    4.9868608    4.6472932    4.4216625  
  20 H       4.0367426    2.5796591 *  3.9728027    4.6164772    3.8607668  

               11 H         12 H         13 H         14 H         15 H     

   1 C       3.3567456    3.0498195    2.2892549 *  4.5740430    4.2766695  
   2 C       2.2042384 *  2.1889813 *  3.3731368    4.2335085    4.5464193  
   3 C       1.0876862 *  1.0858269 *  3.4022761    2.8857975 *  3.5786321  
   4 C       3.2211794    3.0550327    1.0801553 *  3.4616393    2.8211389 *
   5 C       2.1819816 *  2.1953073 *  2.1804699 *  2.1816115 *  2.1729906 *
   6 C       2.7220879 *  3.3241452    2.7976976 *  1.0849654 *  1.0857471 *
   7 H       4.0661918    3.2954477    2.9060232 *  5.2705534    4.9421904  
   8 H       4.0632070    4.0499948    2.5079679 *  5.2742241    4.8208965  
   9 H       2.3596043 *  3.0092865    3.7180733    4.4873652    4.8426602  
  10 H       2.8009880 *  2.3792804 *  4.3057642    5.0684999    5.5087731  
  11 H       0.0000000    1.7556026 *  4.0848140    2.6758389 *  3.7732196  
  12 H       1.7556026 *  0.0000000    4.0968867    3.3059310    4.1247872  
  13 H       4.0848140    4.0968867    0.0000000    3.8335270    2.7126083 *
  14 H       2.6758389 *  3.3059310    3.8335270    0.0000000    1.7666040 *
  15 H       3.7732196    4.1247872    2.7126083 *  1.7666040 *  0.0000000  
  16 H       2.8336477 *  3.8891628    2.9731458 *  1.7677579 *  1.7638880 *
  17 B       3.9823120    3.0216753    2.5831256 *  3.5926054    3.0358043  
  18 H       4.8399748    4.0806894    2.6924398 *  3.8476348    2.8439084 *
  19 H       3.0778088    2.3056658 *  3.7384579    2.2912239 *  2.7265015 *
  20 H       4.2600724    2.9154753 *  3.3221284    4.4443394    4.1344317  

               16 H         17 B         18 H         19 H         20 H     

   1 C       3.9590264    3.0187242    3.8375465    3.9988053    3.0003399  
   2 C       3.8223248    3.6731173    4.6594409    3.8876734    3.6005037  
   3 C       3.0222120    3.0683557    4.0308336    2.5736914 *  3.2355176  
   4 C       2.8904315 *  2.0800000 *  2.6437218 *  3.0693608    2.6399373 *
   5 C       2.1478770 *  2.1089103 *  2.7802263 *  2.0100000 *  2.7928650 *
   6 C       1.0890760 *  3.0953731    3.2995418    2.4414666 *  4.0367426  
   7 H       4.8888405    2.9738387 *  3.8430199    4.2293316    2.5796591 *
   8 H       4.3278617    3.9242713    4.5804138    4.9868608    3.9728027  
   9 H       3.7500665    4.5483941    5.4345311    4.6472932    4.6164772  
  10 H       4.8516236    4.2241473    5.3035486    4.4216625    3.8607668  
  11 H       2.8336477 *  3.9823120    4.8399748    3.0778088    4.2600724  
  12 H       3.8891628    3.0216753    4.0806894    2.3056658 *  2.9154753 *
  13 H       2.9731458 *  2.5831256 *  2.6924398 *  3.7384579    3.3221284  
  14 H       1.7677579 *  3.5926054    3.8476348    2.2912239 *  4.4443394  
  15 H       1.7638880 *  3.0358043    2.8439084 *  2.7265015 *  4.1344317  
  16 H       0.0000000    3.9695936    4.1796556    3.4715612    4.8644874  
  17 B       3.9695936    0.0000000    1.1528424 *  1.9800001 *  1.1526605 *
  18 H       4.1796556    1.1528424 *  0.0000000    2.5510438 *  2.0988662 *
  19 H       3.4715612    1.9800001 *  2.5510438 *  0.0000000    2.5330166 *
  20 H       4.8644874    1.1526605 *  2.0988662 *  2.5330166 *  0.0000000  

  * ... LESS THAN  3.000


     ATOMIC BASIS SET
     ----------------
 THE CONTRACTED PRIMITIVE FUNCTIONS HAVE BEEN UNNORMALIZED
 THE CONTRACTED BASIS FUNCTIONS ARE NOW NORMALIZED TO UNITY

  SHELL TYPE  PRIMITIVE        EXPONENT          CONTRACTION COEFFICIENT(S)

 C         

      1   S       1            71.6168373    0.154328967295
      1   S       2            13.0450963    0.535328142282
      1   S       3             3.5305122    0.444634542185

      2   L       4             2.9412494   -0.099967229187    0.155916274999
      2   L       5             0.6834831    0.399512826089    0.607683718598
      2   L       6             0.2222899    0.700115468880    0.391957393099

 C         

      3   S       7            71.6168373    0.154328967295
      3   S       8            13.0450963    0.535328142282
      3   S       9             3.5305122    0.444634542185

      4   L      10             2.9412494   -0.099967229187    0.155916274999
      4   L      11             0.6834831    0.399512826089    0.607683718598
      4   L      12             0.2222899    0.700115468880    0.391957393099

 C         

      5   S      13            71.6168373    0.154328967295
      5   S      14            13.0450963    0.535328142282
      5   S      15             3.5305122    0.444634542185

      6   L      16             2.9412494   -0.099967229187    0.155916274999
      6   L      17             0.6834831    0.399512826089    0.607683718598
      6   L      18             0.2222899    0.700115468880    0.391957393099

 C         

      7   S      19            71.6168373    0.154328967295
      7   S      20            13.0450963    0.535328142282
      7   S      21             3.5305122    0.444634542185

      8   L      22             2.9412494   -0.099967229187    0.155916274999
      8   L      23             0.6834831    0.399512826089    0.607683718598
      8   L      24             0.2222899    0.700115468880    0.391957393099

 C         

      9   S      25            71.6168373    0.154328967295
      9   S      26            13.0450963    0.535328142282
      9   S      27             3.5305122    0.444634542185

     10   L      28             2.9412494   -0.099967229187    0.155916274999
     10   L      29             0.6834831    0.399512826089    0.607683718598
     10   L      30             0.2222899    0.700115468880    0.391957393099

 C         

     11   S      31            71.6168373    0.154328967295
     11   S      32            13.0450963    0.535328142282
     11   S      33             3.5305122    0.444634542185

     12   L      34             2.9412494   -0.099967229187    0.155916274999
     12   L      35             0.6834831    0.399512826089    0.607683718598
     12   L      36             0.2222899    0.700115468880    0.391957393099

 H         

     13   S      37             3.4252509    0.154328967295
     13   S      38             0.6239137    0.535328142282
     13   S      39             0.1688554    0.444634542185

 H         

     14   S      40             3.4252509    0.154328967295
     14   S      41             0.6239137    0.535328142282
     14   S      42             0.1688554    0.444634542185

 H         

     15   S      43             3.4252509    0.154328967295
     15   S      44             0.6239137    0.535328142282
     15   S      45             0.1688554    0.444634542185

 H         

     16   S      46             3.4252509    0.154328967295
     16   S      47             0.6239137    0.535328142282
     16   S      48             0.1688554    0.444634542185

 H         

     17   S      49             3.4252509    0.154328967295
     17   S      50             0.6239137    0.535328142282
     17   S      51             0.1688554    0.444634542185

 H         

     18   S      52             3.4252509    0.154328967295
     18   S      53             0.6239137    0.535328142282
     18   S      54             0.1688554    0.444634542185

 H         

     19   S      55             3.4252509    0.154328967295
     19   S      56             0.6239137    0.535328142282
     19   S      57             0.1688554    0.444634542185

 H         

     20   S      58             3.4252509    0.154328967295
     20   S      59             0.6239137    0.535328142282
     20   S      60             0.1688554    0.444634542185

 H         

     21   S      61             3.4252509    0.154328967295
     21   S      62             0.6239137    0.535328142282
     21   S      63             0.1688554    0.444634542185

 H         

     22   S      64             3.4252509    0.154328967295
     22   S      65             0.6239137    0.535328142282
     22   S      66             0.1688554    0.444634542185

 B         

     23   S      67            48.7911132    0.154328967295
     23   S      68             8.8873622    0.535328142282
     23   S      69             2.4052670    0.444634542185

     24   L      70             2.2369561   -0.099967229187    0.155916274999
     24   L      71             0.5198205    0.399512826089    0.607683718598
     24   L      72             0.1690618    0.700115468880    0.391957393099

 H         

     25   S      73             3.4252509    0.154328967295
     25   S      74             0.6239137    0.535328142282
     25   S      75             0.1688554    0.444634542185

 H         

     26   S      76             3.4252509    0.154328967295
     26   S      77             0.6239137    0.535328142282
     26   S      78             0.1688554    0.444634542185

 H         

     27   S      79             3.4252509    0.154328967295
     27   S      80             0.6239137    0.535328142282
     27   S      81             0.1688554    0.444634542185

 TOTAL NUMBER OF BASIS SET SHELLS             =   27
 NUMBER OF CARTESIAN GAUSSIAN BASIS FUNCTIONS =   48
 NUMBER OF ELECTRONS                          =   54
 CHARGE OF MOLECULE                           =    0
 SPIN MULTIPLICITY                            =    1
 NUMBER OF OCCUPIED ORBITALS (ALPHA)          =   27
 NUMBER OF OCCUPIED ORBITALS (BETA )          =   27
 TOTAL NUMBER OF ATOMS                        =   20
 THE NUCLEAR REPULSION ENERGY IS      303.0191532048

     $CONTRL OPTIONS
     ---------------
 SCFTYP=RHF          RUNTYP=SADPOINT     EXETYP=RUN     
 MPLEVL=       0     CITYP =NONE         CCTYP =NONE         VBTYP =NONE    
 DFTTYP=NONE         TDDFT =NONE    
 MULT  =       1     ICHARG=       0     NZVAR =       1     COORD =UNIQUE  
 PP    =NONE         RELWFN=NONE         LOCAL =NONE         NUMGRD=       F
 ISPHER=      -1     NOSYM =       0     MAXIT =      30     UNITS =ANGS    
 PLTORB=       F     MOLPLT=       F     AIMPAC=       F     FRIEND=        
 NPRINT=       7     IREST =       0     GEOM  =INPUT   
 NORMF =       0     NORMP =       0     ITOL  =      20     ICUT  =       9
 INTTYP=BEST         GRDTYP=BEST         QMTTOL= 1.0E-06

     $SYSTEM OPTIONS
     ---------------
  REPLICATED MEMORY=     1000000 WORDS (ON EVERY NODE).
 DISTRIBUTED MEMDDI=           0 MILLION WORDS IN AGGREGATE,
 MEMDDI DISTRIBUTED OVER   1 PROCESSORS IS           0 WORDS/PROCESSOR.
 TOTAL MEMORY REQUESTED ON EACH PROCESSOR=     1000000 WORDS.
 TIMLIM=      525600.00 MINUTES, OR     365.0 DAYS.
 PARALL= F  BALTYP=  DLB     KDIAG=    0  COREFL= F
 MXSEQ2=     300 MXSEQ3=     150  mem10=         0

          ----------------
          PROPERTIES INPUT
          ----------------

     MOMENTS            FIELD           POTENTIAL          DENSITY
 IEMOM =       1   IEFLD =       0   IEPOT =       0   IEDEN =       0
 WHERE =COMASS     WHERE =NUCLEI     WHERE =NUCLEI     WHERE =NUCLEI  
 OUTPUT=BOTH       OUTPUT=BOTH       OUTPUT=BOTH       OUTPUT=BOTH    
 IEMINT=       0   IEFINT=       0                     IEDINT=       0
                                                       MORB  =       0
          EXTRAPOLATION IN EFFECT
          SOSCF IN EFFECT
 ORBITAL PRINTING OPTION: NPREO=     1    48     2     1

     -------------------------------
     INTEGRAL TRANSFORMATION OPTIONS
     -------------------------------
     NWORD  =            0
     CUTOFF = 1.0E-09     MPTRAN =       0
     DIRTRF =       F     AOINTS =DUP     

          ----------------------
          INTEGRAL INPUT OPTIONS
          ----------------------
 NOPK  =       1 NORDER=       0 SCHWRZ=       T


 -----------------------------------------------
  STATISTICS ON AUTOMATIC COORDINATE GENERATION 
 -----------------------------------------------
  NUMBER OF USER SPECIFIED BONDS                             4
  NUMBER OF BONDS                                           22
  NUMBER OF ANGLES                                          49
  NUMBER OF TORSIONS                                        69
  NUMBER OF EXTRA COORD.                                     0
  NUMBER OF EXTRA COORD. FOR CONSTRAINTS                     0
  NUMBER OF CONSTRAINED COORD.                               0

  TOTAL NUMBER OF PRIMITIVES                               140
 -----------------------------------------------

   --- ENCODED Z MATRIX ---
 COORD  TYPE   I   J   K   L   M   N
    1      1    1   7
    2      1    1   2
    3      1    1   8
    4      1    1   4
    5      1    2   3
    6      1    2  10
    7      1    2   9
    8      1    3  12
    9      1    3  11
   10      1    3   5
   11      1    4  13
   12      1    4   5
   13      1    4   5
   14      1    4  17
   15      1    5   6
   16      1    5  19
   17      1    6  15
   18      1    6  14
   19      1    6  16
   20      1   17  19
   21      1   17  20
   22      1   17  18
   23      2    1   4  17
   24      2    1   4   5
   25      2    1   2   3
   26      2    1   4  13
   27      2    1   2  10
   28      2    1   4   5
   29      2    1   2   9
   30      2    2   1   7
   31      2    2   1   4
   32      2    2   3   5
   33      2    2   3  11
   34      2    2   3  12
   35      2    2   1   8
   36      2    3   2   9
   37      2    3   2  10
   38      2    3   5  19
   39      2    3   5   6
   40      2    3   5   4
   41      2    3   5   4
   42      2    4   5   6
   43      2    4   1   7
   44      2    4   5  19
   45      2    4  17  18
   46      2    4  17  20
   47      2    4  17  19
   48      2    4   5   6
   49      2    4   5  19
   50      2    4   1   8
   51      2    5   4  17
   52      2    5   4  13
   53      2    5   4  13
   54      2    5   3  11
   55      2    5   3  12
   56      2    5   6  14
   57      2    5   6  15
   58      2    5   6  16
   59      2    5  19  17
   60      2    5   4  17
   61      2    6   5  19
   62      2    7   1   8
   63      2    9   2  10
   64      2   11   3  12
   65      2   13   4  17
   66      2   14   6  16
   67      2   14   6  15
   68      2   15   6  16
   69      2   18  17  20
   70      2   18  17  19
   71      2   19  17  20
   72      3    1   4   5  19
   73      3    1   4  17  18
   74      3    1   4   5   6
   75      3    1   4  17  20
   76      3    1   4  17  19
   77      3    1   2   3   5
   78      3    1   2   3  11
   79      3    1   2   3  12
   80      3    1   4   5   3
   81      3    2   3   5  19
   82      3    2   3   5   6
   83      3    2   3   5   4
   84      3    2   1   4  17
   85      3    2   1   4  13
   86      3    2   1   4   5
   87      3    3   2   1   4
   88      3    3   2   1   8
   89      3    3   2   1   7
   90      3    3   5   4  17
   91      3    3   5   4  13
   92      3    3   5   6  16
   93      3    3   5   6  14
   94      3    3   5   6  15
   95      3    3   5  19  17
   96      3    4  17  19   5
   97      3    4   5  19  17
   98      3    4   1   2  10
   99      3    4   5   6  16
  100      3    4   5   6  14
  101      3    4   5   6  15
  102      3    4   5   3  11
  103      3    4   5   3  12
  104      3    4   1   2   9
  105      3    5   4  17  19
  106      3    5   4   1   7
  107      3    5   4  17  20
  108      3    5   4  17  18
  109      3    5   3   2   9
  110      3    5   3   2  10
  111      3    5  19  17  18
  112      3    5  19  17  20
  113      3    5   4   1   8
  114      3    6   5   4  17
  115      3    6   5   4  13
  116      3    6   5  19  17
  117      3    6   5   3  11
  118      3    6   5   3  12
  119      3    7   1   2   9
  120      3    7   1   4  17
  121      3    7   1   2  10
  122      3    7   1   4  13
  123      3    8   1   4  17
  124      3    8   1   2  10
  125      3    8   1   4  13
  126      3    8   1   2   9
  127      3    9   2   3  12
  128      3    9   2   3  11
  129      3   10   2   3  12
  130      3   10   2   3  11
  131      3   11   3   5  19
  132      3   12   3   5  19
  133      3   13   4  17  19
  134      3   13   4  17  20
  135      3   13   4  17  18
  136      3   13   4   5  19
  137      3   14   6   5  19
  138      3   15   6   5  19
  139      3   16   6   5  19
  140      3   17   4   5  19

          INDEP./SYM. INTERNAL COORDINATES
          --------------------------------
 CRD  1=  -0.1036 (  5) -0.2735 ( 10) -0.4173 ( 39)  0.2896 ( 42)  0.2896 ( 48)
          -0.1052 ( 54) -0.2249 ( 56)  0.2393 ( 57) -0.2012 ( 74) -0.1077 ( 92)
          -0.1134 ( 95) -0.1465 (114) -0.1644 (115)  0.3072 (116)
 CRD  2=  -0.2283 (  4) -0.1681 ( 10) -0.2329 ( 23) -0.1013 ( 32) -0.2086 ( 38)
           0.1156 ( 40)  0.1156 ( 41) -0.1242 ( 42) -0.1141 ( 46) -0.1242 ( 48)
           0.1347 ( 56)  0.1045 ( 57) -0.1933 ( 58)  0.2830 ( 61)  0.1347 ( 65)
           0.1676 ( 72) -0.1057 ( 81)  0.1011 ( 82) -0.2724 ( 90)  0.1055 ( 95)
          -0.1016 (111) -0.1501 (112) -0.3127 (114) -0.1063 (115)  0.1157 (116)
           0.1181 (117) -0.1077 (132)  0.1514 (136) -0.1102 (138)
 CRD  3=   0.1322 (  4)  0.1081 ( 12)  0.1081 ( 13) -0.1108 ( 14)  0.5142 ( 15)
          -0.1630 ( 23)  0.1554 ( 32) -0.1268 ( 34) -0.1285 ( 40) -0.1285 ( 41)
           0.1585 ( 42)  0.1585 ( 48)  0.1562 ( 57)  0.2855 ( 58) -0.1311 ( 66)
          -0.1146 ( 67) -0.1611 ( 68)  0.1691 ( 72)  0.1352 ( 74) -0.1198 ( 81)
          -0.1889 ( 82) -0.1186 ( 90)  0.1767 ( 95)  0.1510 (116)
 CRD  4=   0.1260 (  4)  0.3144 ( 10)  0.3091 ( 14)  0.4018 ( 15)  0.1043 ( 23)
           0.1367 ( 46) -0.1326 ( 47)  0.2463 ( 56)  0.1993 ( 57) -0.1259 ( 58)
           0.1264 ( 59) -0.1667 ( 67) -0.1414 ( 69) -0.1327 ( 72) -0.1733 ( 74)
           0.1669 ( 82) -0.1288 ( 94)  0.1114 (112)  0.1201 (118)  0.1042 (137)
 CRD  5=   0.1275 (  3)  0.2864 (  4) -0.1192 (  9) -0.3011 ( 10)  0.2766 ( 14)
          -0.1655 ( 20)  0.1261 ( 29) -0.1268 ( 31)  0.1435 ( 32) -0.1108 ( 36)
           0.1076 ( 43)  0.1148 ( 44)  0.1455 ( 45)  0.1148 ( 49) -0.1333 ( 51)
          -0.1498 ( 55) -0.1333 ( 60) -0.1051 ( 70) -0.1021 ( 71) -0.1103 ( 79)
          -0.1255 ( 80)  0.1664 ( 81)  0.1001 ( 83)  0.2234 ( 84)  0.1158 ( 86)
          -0.1316 (111)  0.1102 (120)  0.1547 (123)  0.1257 (131)  0.1002 (134)
 CRD  6=  -0.1714 (  2) -0.1175 (  6)  0.1550 ( 12)  0.1550 ( 13) -0.2783 ( 14)
           0.2048 ( 15)  0.1272 ( 24)  0.3197 ( 25) -0.1244 ( 26) -0.1621 ( 27)
           0.1272 ( 28) -0.1222 ( 29) -0.2591 ( 31) -0.2200 ( 32)  0.1138 ( 35)
          -0.1012 ( 36)  0.2082 ( 43) -0.1781 ( 45)  0.1689 ( 47)  0.1548 ( 55)
           0.1973 ( 56) -0.1098 ( 59) -0.1030 ( 62)  0.1261 ( 63) -0.1006 ( 67)
           0.1363 ( 69)  0.1053 ( 98) -0.1156 (109)  0.1453 (111)
 CRD  7=  -0.1105 (  1) -0.2879 (  2) -0.3582 (  4)  0.1032 (  5)  0.2045 ( 10)
          -0.1275 ( 26) -0.1163 ( 27) -0.1268 ( 30)  0.1947 ( 31)  0.1461 ( 37)
          -0.1658 ( 50)  0.1021 ( 52)  0.1021 ( 53) -0.2995 ( 56)  0.2908 ( 57)
           0.1014 ( 62)  0.1413 ( 66) -0.1071 ( 71)  0.1198 ( 75)  0.1282 ( 95)
           0.1314 (107)  0.1022 (116)
 CRD  8=   0.1691 (  4) -0.3025 ( 14) -0.1334 ( 19) -0.2052 ( 25)  0.1979 ( 32)
          -0.1023 ( 45) -0.1413 ( 46)  0.1194 ( 47) -0.1141 ( 54)  0.2153 ( 56)
           0.2737 ( 57) -0.5273 ( 58) -0.1117 ( 59)  0.1315 ( 66) -0.1952 ( 67)
           0.1355 ( 69)
 CRD  9=   0.2352 (  2)  0.1141 (  4) -0.3901 (  5)  0.2781 ( 10) -0.1338 ( 14)
           0.1231 ( 17) -0.1199 ( 18)  0.1371 ( 25) -0.1075 ( 33) -0.1621 ( 36)
          -0.1467 ( 37) -0.1088 ( 46)  0.1266 ( 54)  0.1064 ( 55) -0.3261 ( 56)
           0.3441 ( 57)  0.1311 ( 66) -0.1554 ( 68)  0.1402 (127) -0.1348 (130)
 CRD 10=   0.4658 (  2)  0.1152 (  3)  0.5182 (  5)  0.1505 (  6)  0.1053 (  8)
           0.1555 (  9)  0.1181 ( 10)  0.1193 ( 30)  0.1420 ( 33)  0.1150 ( 34)
           0.1026 ( 35)  0.1133 ( 40)  0.1133 ( 41) -0.1777 ( 56)  0.1455 ( 57)
 CRD 11=  -0.3193 (  2)  0.2301 (  4)  0.1624 (  5)  0.1401 (  9)  0.1203 ( 10)
           0.1752 ( 14) -0.1409 ( 15)  0.1738 ( 25) -0.2281 ( 29) -0.1133 ( 32)
           0.1111 ( 33) -0.1706 ( 35)  0.1247 ( 36)  0.2119 ( 45)  0.2326 ( 50)
          -0.1266 ( 56)  0.1823 ( 57) -0.1985 ( 58)  0.1543 ( 66) -0.1077 ( 81)
          -0.1034 ( 82) -0.1375 ( 83)  0.1307 ( 88) -0.1561 (104) -0.1935 (111)
          -0.1151 (119)  0.1199 (123)  0.1143 (124)
 CRD 12=  -0.2105 (  2) -0.1266 (  3)  0.1791 (  4)  0.1871 (  5) -0.1085 ( 12)
          -0.1085 ( 13) -0.1987 ( 14) -0.1039 ( 18)  0.1224 ( 19)  0.1312 ( 26)
          -0.1281 ( 27) -0.1711 ( 30)  0.1050 ( 34)  0.1967 ( 37)  0.1805 ( 43)
          -0.2091 ( 46) -0.2070 ( 56)  0.2605 ( 58)  0.1033 ( 61) -0.1176 ( 65)
           0.1187 ( 67) -0.1204 ( 68) -0.1533 ( 75) -0.1031 ( 76)  0.1004 ( 82)
          -0.1334 ( 89)  0.1574 ( 98) -0.1655 (112) -0.1322 (120) -0.1075 (122)
 CRD 13=   0.2656 ( 10)  0.2043 ( 11)  0.1533 ( 12)  0.1533 ( 13) -0.1411 ( 15)
           0.1147 ( 18) -0.1604 ( 21)  0.1393 ( 22)  0.1025 ( 29) -0.1267 ( 30)
           0.1003 ( 42)  0.2409 ( 45) -0.2771 ( 46)  0.1003 ( 48)  0.1063 ( 54)
           0.1734 ( 56) -0.2567 ( 57)  0.1671 ( 68) -0.1105 ( 78) -0.2928 (111)
          -0.3037 (112)  0.1126 (116)
 CRD 14=  -0.1127 (  3) -0.1291 (  4)  0.1256 (  8) -0.2131 (  9)  0.1121 ( 16)
          -0.2387 ( 20)  0.1982 ( 27) -0.1263 ( 29) -0.1587 ( 34)  0.1591 ( 36)
          -0.1308 ( 37)  0.1995 ( 45) -0.1215 ( 46) -0.2166 ( 54)  0.2584 ( 55)
           0.1093 ( 58) -0.1247 ( 70) -0.1052 ( 77)  0.1043 ( 78)  0.1266 ( 79)
          -0.1083 ( 86)  0.1281 ( 87)  0.1076 ( 89) -0.1023 ( 92) -0.1036 ( 93)
          -0.1204 ( 94)  0.1034 (103) -0.2132 (109) -0.2234 (110) -0.2057 (111)
          -0.1102 (112)  0.1401 (118)  0.1104 (132)
 CRD 15=  -0.1994 (  4) -0.2088 (  8) -0.1410 ( 10) -0.5164 ( 11)  0.1172 ( 22)
           0.1289 ( 24) -0.1132 ( 26)  0.1289 ( 28)  0.1231 ( 30) -0.1357 ( 36)
           0.1012 ( 37)  0.2212 ( 45) -0.2000 ( 46)  0.1448 ( 71)  0.1025 ( 76)
          -0.1256 ( 88)  0.1003 (106) -0.1210 (107) -0.1754 (111) -0.1696 (112)
 CRD 16=   0.2115 (  1) -0.2621 (  6)  0.3151 (  7) -0.1365 (  8)  0.1954 ( 16)
          -0.1883 ( 20) -0.1507 ( 22) -0.1408 ( 27)  0.1623 ( 29) -0.1018 ( 33)
           0.1470 ( 54) -0.1029 ( 70) -0.2048 ( 78) -0.1722 ( 79)  0.1290 ( 88)
          -0.1768 ( 92) -0.1779 ( 93) -0.1861 ( 94) -0.1705 ( 99) -0.1716 (100)
          -0.1798 (101)  0.1083 (109) -0.1120 (137) -0.1202 (138) -0.1109 (139)
 CRD 17=  -0.1473 (  4) -0.3459 (  6)  0.3850 (  7)  0.2497 (  8) -0.1125 ( 11)
          -0.1704 ( 16)  0.1257 ( 22)  0.1232 ( 34)  0.1385 ( 36) -0.1162 ( 37)
          -0.1370 ( 43)  0.1137 ( 50) -0.1496 ( 78) -0.1604 ( 79)  0.1915 ( 88)
           0.2054 ( 89)  0.1582 ( 92)  0.1513 ( 93)  0.1611 ( 94)  0.1015 (101)
          -0.1188 (133)
 CRD 18=  -0.2618 (  3) -0.1463 (  4) -0.1023 (  8)  0.1592 (  9)  0.1913 ( 11)
          -0.3413 ( 16) -0.1798 ( 19) -0.1004 ( 30)  0.1822 ( 33)  0.1200 ( 43)
           0.1186 ( 46) -0.1095 ( 47) -0.1513 ( 50)  0.1088 ( 56)  0.1077 ( 57)
          -0.1415 ( 67)  0.1130 ( 72) -0.1649 ( 73)  0.1406 ( 74) -0.1114 ( 75)
          -0.1183 ( 82)  0.1228 ( 98)  0.1174 (102)  0.1170 (104) -0.1025 (106)
          -0.1139 (108)  0.1286 (112)  0.1029 (115)  0.1332 (131) -0.1282 (135)
 CRD 19=   0.4135 (  1) -0.2228 (  3)  0.1018 (  4)  0.1090 (  7)  0.2243 ( 17)
           0.2409 ( 18)  0.2235 ( 19)  0.1379 ( 20)  0.1050 ( 21)  0.1594 ( 30)
          -0.1130 ( 35) -0.1336 ( 56) -0.1117 ( 57) -0.1153 ( 58)  0.1296 ( 66)
           0.1297 ( 67)  0.1112 ( 68)  0.1208 ( 73)  0.1094 ( 76) -0.1106 ( 85)
           0.1405 ( 98)  0.1309 (104)  0.1070 (106)  0.1005 (135)
 CRD 20=  -0.2116 (  1)  0.1484 (  3)  0.1236 (  8) -0.1020 (  9) -0.1257 ( 11)
           0.1262 ( 15) -0.2013 ( 16)  0.4042 ( 17)  0.3846 ( 18)  0.2912 ( 19)
          -0.1351 ( 30)  0.1351 ( 35) -0.1184 ( 56) -0.1082 ( 57) -0.1612 ( 58)
           0.1461 ( 66)  0.1109 ( 67)  0.1415 ( 68) -0.1051 (106) -0.1042 (113)
          -0.1309 (120) -0.1301 (123)
 CRD 21=  -0.2828 (  8)  0.2836 (  9) -0.1290 ( 11)  0.2688 ( 16)  0.1503 ( 17)
           0.1364 ( 18)  0.2895 ( 19) -0.1615 ( 20) -0.1985 ( 21)  0.1888 ( 33)
          -0.1778 ( 34)  0.1143 ( 47) -0.1483 ( 71) -0.1062 ( 81)  0.1765 (102)
           0.1709 (103)  0.1124 (109)  0.1209 (110)  0.1935 (117)  0.1879 (118)
          -0.1153 (133)  0.1132 (137)  0.1122 (139)
 CRD 22=   0.2705 (  3)  0.1191 (  4) -0.1115 (  6) -0.2261 ( 11) -0.1377 ( 15)
          -0.1620 ( 16) -0.1271 ( 17) -0.1808 ( 18) -0.1243 ( 19)  0.3115 ( 21)
           0.3416 ( 22)  0.1283 ( 33) -0.1635 ( 34)  0.1161 ( 35) -0.1101 ( 47)
           0.1091 ( 55)  0.1340 ( 73)  0.1082 ( 75)  0.1515 (102)  0.1653 (103)
           0.1014 (117)  0.1152 (118) -0.1345 (120) -0.1458 (123)  0.1562 (131)
           0.1700 (132)  0.1209 (135)
 CRD 23=  -0.1602 (  3)  0.1821 ( 11)  0.1552 ( 16)  0.5801 ( 21)  0.5267 ( 22)
          -0.1163 ( 46)  0.2355 ( 69) -0.1611 ( 73) -0.1257 (108)  0.1074 (111)
          -0.1666 (135)
 CRD 24=   0.1054 ( 14)  0.2621 ( 16) -0.1984 ( 17)  0.2117 ( 21) -0.2945 ( 22)
          -0.1089 ( 30)  0.1343 ( 35)  0.1115 ( 43) -0.1092 ( 50) -0.1916 ( 70)
           0.1919 ( 71) -0.1114 ( 75)  0.1118 ( 76)  0.1331 ( 92)  0.1818 ( 99)
           0.1273 (100)  0.1369 (101) -0.1261 (106) -0.1580 (107) -0.1067 (108)
          -0.1373 (113) -0.1107 (120) -0.1431 (122) -0.1220 (123) -0.1544 (125)
          -0.1594 (134) -0.1082 (135)  0.1624 (137)  0.1720 (138)  0.2168 (139)
 CRD 25=  -0.4150 (  1)  0.1559 (  6)  0.1232 (  7)  0.1345 (  8) -0.1346 ( 16)
          -0.1280 ( 17)  0.1638 ( 21) -0.2270 ( 22) -0.1076 ( 27) -0.1173 ( 36)
          -0.1055 ( 43)  0.1654 ( 50) -0.1484 ( 70)  0.1644 ( 71) -0.1112 ( 72)
          -0.1140 ( 73) -0.1055 ( 75)  0.1202 ( 88)  0.1003 (103)  0.1117 (106)
          -0.1058 (107) -0.1143 (108)  0.1289 (119)  0.1586 (124)  0.2032 (126)
           0.1098 (127)  0.1036 (128)  0.1300 (129)  0.1238 (130)  0.1225 (132)
          -0.1177 (136)
 CRD 26=   0.1336 (  8)  0.1275 (  9)  0.4585 ( 17) -0.5685 ( 18) -0.2577 ( 66)
           0.3132 ( 68) -0.1775 ( 92)  0.1508 ( 94) -0.1636 ( 99)  0.1101 (100)
           0.1648 (101)  0.1109 (137)  0.1656 (138) -0.1628 (139)
 CRD 27=   0.1201 (  6)  0.1603 (  7) -0.1286 (  8) -0.1189 (  9)  0.3822 ( 17)
           0.1680 ( 18) -0.5957 ( 19) -0.2120 ( 66)  0.3209 ( 67) -0.1030 ( 68)
           0.1963 ( 93) -0.1416 ( 94)  0.2136 (100) -0.1243 (101)  0.2116 (137)
          -0.1263 (138)
 CRD 28=  -0.4429 (  6) -0.4587 (  7)  0.3793 (  8)  0.3378 (  9)  0.1860 ( 18)
          -0.1962 ( 19) -0.1677 ( 63)  0.1340 ( 64)  0.1108 ( 67)  0.1011 (121)
           0.1420 (128) -0.1016 (129)
 CRD 29=  -0.2826 (  3)  0.3054 (  6)  0.2894 (  7)  0.3572 (  8)  0.4977 (  9)
           0.1001 ( 43)  0.1151 ( 63)  0.1687 ( 64) -0.1616 (121) -0.1658 (127)
          -0.1008 (131)
 CRD 30=   0.4324 (  1)  0.5352 (  3) -0.1214 (  4)  0.2971 (  6)  0.1756 (  7)
           0.1560 (  8)  0.1517 (  9) -0.1120 ( 35)  0.2318 ( 62) -0.1227 ( 73)
           0.1042 ( 89)  0.1263 (113)  0.1708 (119)  0.1410 (123)  0.1182 (125)
          -0.1017 (135)
 CRD 31=  -0.1807 (  1)  0.1757 (  3)  0.3082 (  8) -0.2159 (  9) -0.1073 ( 10)
           0.1663 ( 11)  0.1196 ( 14)  0.2369 ( 16)  0.1623 ( 20) -0.1106 ( 21)
           0.1003 ( 22) -0.1271 ( 27)  0.1108 ( 29) -0.1242 ( 36)  0.1129 ( 37)
          -0.1079 ( 54)  0.1082 ( 70)  0.1056 ( 72)  0.1030 ( 73)  0.1260 ( 78)
          -0.1132 (102)  0.1071 (104) -0.1347 (113)  0.1395 (119)  0.1220 (121)
          -0.1207 (123)  0.1099 (124) -0.1147 (125)  0.1274 (126)  0.1456 (127)
           0.1968 (128)  0.1595 (129)  0.2107 (130) -0.1159 (131)  0.1083 (136)
 CRD 32=  -0.1693 (  8)  0.2060 (  9)  0.1878 ( 11)  0.1047 ( 12)  0.1047 ( 13)
           0.1543 ( 16)  0.4833 ( 20)  0.1123 ( 44) -0.1168 ( 46)  0.1123 ( 49)
           0.1279 ( 70)  0.1608 ( 71) -0.1655 ( 75)  0.1327 ( 81) -0.1170 ( 94)
          -0.1543 (107)  0.1178 (118)  0.1363 (131)  0.1874 (132) -0.2277 (134)
          -0.1588 (137) -0.1888 (138) -0.1417 (139)
 CRD 33=  -0.1312 (  1)  0.1385 (  3)  0.2666 (  6) -0.2893 (  7) -0.1186 ( 77)
          -0.1899 ( 78) -0.1800 ( 79)  0.1245 ( 87)  0.1974 ( 88)  0.1723 ( 89)
           0.1677 ( 98)  0.1557 (104) -0.1421 (109) -0.1492 (110) -0.1071 (113)
           0.2035 (119)  0.2155 (121)  0.2406 (124)  0.2286 (126) -0.2035 (127)
          -0.2133 (128) -0.2106 (129) -0.2204 (130)
 CRD 34=   0.1881 (  1) -0.1895 (  3)  0.1992 (  6) -0.1761 (  7)  0.1861 (  8)
          -0.1643 (  9)  0.1083 ( 10) -0.4250 ( 11)  0.1326 ( 12)  0.1326 ( 13)
           0.1339 ( 16) -0.1734 ( 17) -0.1271 ( 18) -0.1445 ( 19)  0.1237 ( 21)
          -0.1136 ( 56) -0.1545 ( 57) -0.1528 ( 58)  0.1258 ( 66)  0.1491 ( 67)
           0.1570 ( 68)  0.1318 ( 72)  0.1395 (112) -0.1581 (133) -0.1191 (134)
          -0.1127 (135)  0.1005 (136)
 CRD 35=   0.1271 (  1) -0.1113 (  3) -0.1485 (  7)  0.1218 (  8) -0.1591 (  9)
          -0.1246 ( 10)  0.2143 ( 11)  0.1029 ( 12)  0.1029 ( 13) -0.1919 ( 14)
           0.1522 ( 16)  0.1024 ( 20)  0.2099 ( 22) -0.1068 ( 43)  0.1863 ( 45)
           0.1493 ( 46) -0.2032 ( 65) -0.1968 ( 69) -0.1357 ( 70) -0.1063 ( 79)
           0.1540 ( 85) -0.1962 ( 91) -0.2134 (111)  0.1605 (112) -0.1189 (115)
           0.1723 (122) -0.1009 (123) -0.1166 (127) -0.2407 (136)
 CRD 36=   0.1219 (  3)  0.2630 ( 11)  0.2133 ( 15) -0.3296 ( 16) -0.1348 ( 17)
          -0.2731 ( 18) -0.1019 ( 19) -0.2172 ( 20) -0.1180 ( 26) -0.2176 ( 56)
          -0.1502 ( 57) -0.1583 ( 58)  0.1339 ( 59)  0.1080 ( 64)  0.2056 ( 66)
           0.2336 ( 67)  0.1167 (106)  0.1147 (122) -0.1428 (131) -0.1171 (135)
 CRD 37=   0.1542 (  1) -0.1332 (  3)  0.1227 (  6) -0.1935 (  7)  0.1921 (  8)
          -0.1557 (  9)  0.4454 ( 14)  0.1175 ( 16) -0.2465 ( 20) -0.1443 ( 21)
          -0.2206 ( 45) -0.2203 ( 46)  0.1323 ( 59) -0.1043 ( 67)  0.1917 ( 69)
           0.1110 ( 70)  0.1531 ( 71) -0.1076 ( 98)  0.1253 (102)  0.2261 (111)
          -0.2330 (112)
 CRD 38=  -0.1024 (  1) -0.1448 (  6)  0.1308 (  9)  0.1203 ( 10)  0.4140 ( 15)
           0.2018 ( 16) -0.1687 ( 17) -0.2214 ( 19)  0.1113 ( 26)  0.1319 ( 33)
           0.1406 ( 34) -0.1347 ( 36) -0.1020 ( 52) -0.1020 ( 53) -0.1461 ( 56)
          -0.1721 ( 57) -0.1637 ( 58)  0.1247 ( 62)  0.1525 ( 66)  0.1055 ( 67)
           0.2396 ( 68) -0.1194 (103)  0.1503 (104) -0.1578 (118)  0.1944 (119)
          -0.1241 (124)  0.1274 (131)  0.1190 (133)  0.1078 (135)
 CRD 39=  -0.2768 (  2) -0.1323 (  3)  0.3364 (  5)  0.1107 (  6) -0.2269 ( 10)
          -0.1121 ( 16) -0.1405 ( 21)  0.1494 ( 22)  0.1861 ( 27)  0.2305 ( 29)
          -0.1503 ( 36) -0.1858 ( 37)  0.1211 ( 54)  0.1398 ( 55)  0.1141 ( 62)
          -0.1281 ( 64) -0.1184 ( 78)  0.1230 ( 79) -0.1419 ( 98)  0.1846 (109)
          -0.1274 (110)  0.1410 (119) -0.1012 (120) -0.1468 (124)  0.3171 (127)
          -0.2363 (130)
 CRD 40=  -0.1728 (  2)  0.2542 (  4) -0.1395 (  6) -0.1693 ( 15)  0.1102 ( 17)
           0.3670 ( 21) -0.3243 ( 22) -0.1440 ( 36) -0.1103 ( 37) -0.1033 ( 43)
           0.1023 ( 45)  0.1086 ( 52)  0.1086 ( 53) -0.1167 ( 54)  0.1260 ( 63)
          -0.1022 ( 68)  0.1495 ( 70) -0.1203 ( 71) -0.1028 ( 76)  0.1461 (104)
           0.1184 (108)  0.2230 (119) -0.1478 (124) -0.1322 (132) -0.1923 (133)
 CRD 41=   0.1305 (  2) -0.2272 (  4) -0.1084 ( 10)  0.1536 ( 12)  0.1536 ( 13)
           0.2206 ( 17) -0.1443 ( 18) -0.1030 ( 19)  0.1132 ( 27) -0.1732 ( 30)
          -0.2017 ( 35)  0.1960 ( 43)  0.1607 ( 50) -0.1012 ( 54) -0.1142 ( 63)
           0.1906 ( 66)  0.1109 ( 88) -0.1201 ( 89)  0.1077 ( 92) -0.1311 ( 93)
          -0.1782 (100) -0.1026 (106) -0.1230 (110)  0.1618 (113) -0.1328 (119)
          -0.1346 (120) -0.1205 (121) -0.1035 (122)  0.1297 (123)  0.1105 (124)
           0.1608 (125)  0.1692 (128) -0.1550 (129)  0.1894 (139)
 CRD 42=  -0.2528 ( 10)  0.1107 ( 11)  0.1149 ( 15)  0.1364 ( 16)  0.1139 ( 18)
          -0.2125 ( 19)  0.2586 ( 21) -0.1975 ( 22) -0.1097 ( 33) -0.1167 ( 34)
           0.1025 ( 45) -0.1097 ( 46)  0.1518 ( 54)  0.1774 ( 55) -0.1343 ( 63)
          -0.1098 ( 65) -0.1284 ( 67)  0.1274 ( 68)  0.1317 ( 70)  0.1008 ( 73)
          -0.1328 ( 78)  0.1062 ( 79)  0.1870 ( 94) -0.1051 ( 95)  0.1243 (101)
           0.1092 (108) -0.1039 (111) -0.1385 (126)  0.1513 (127) -0.1580 (130)
           0.1610 (135)  0.1299 (138)
 CRD 43=  -0.1813 ( 12) -0.1813 ( 13) -0.1541 ( 14) -0.3813 ( 20)  0.1006 ( 21)
           0.2126 ( 22) -0.1105 ( 26) -0.3406 ( 69)  0.1349 ( 70)  0.1797 ( 71)
           0.2087 ( 73) -0.2040 ( 75) -0.2362 (107)  0.1766 (108)  0.1235 (112)
          -0.2927 (134)  0.1201 (135)
 CRD 44=   0.1399 (  1) -0.1023 (  3) -0.1429 (  4)  0.1569 (  6) -0.1536 (  7)
           0.2520 ( 15) -0.1010 ( 16) -0.1277 ( 17) -0.1651 ( 18)  0.1983 ( 19)
           0.1911 ( 21) -0.1683 ( 22)  0.1182 ( 23) -0.1016 ( 58)  0.2170 ( 67)
           0.1227 ( 88)  0.1546 ( 90) -0.1662 ( 94) -0.1163 ( 95)  0.1628 (100)
          -0.1015 (101) -0.1264 (104)  0.1008 (108)  0.1120 (109)  0.1373 (110)
          -0.1025 (111) -0.1288 (122) -0.1309 (125)  0.1134 (130)  0.1060 (134)
           0.1473 (135)  0.1116 (137) -0.1527 (138)
 CRD 45=  -0.1041 (  1)  0.2152 (  2) -0.1765 (  3)  0.1017 (  4)  0.1171 (  5)
          -0.1084 (  6) -0.1396 ( 11)  0.1721 ( 12)  0.1721 ( 13) -0.1139 ( 18)
          -0.2229 ( 20) -0.1089 ( 29) -0.1007 ( 33)  0.2260 ( 62)  0.1187 ( 64)
          -0.1473 ( 69)  0.1075 ( 71) -0.1623 ( 75)  0.1160 ( 84) -0.1194 ( 88)
           0.1296 ( 89)  0.1242 ( 92) -0.1218 (102) -0.1345 (106) -0.1156 (107)
           0.1363 (108) -0.1337 (117)  0.1602 (119)  0.1784 (121) -0.1315 (122)
           0.1726 (123) -0.1018 (127) -0.1115 (131)  0.1017 (133)  0.2124 (135)
 CRD 46=   0.1065 (  4) -0.1678 (  5)  0.1700 (  9) -0.1136 ( 12) -0.1136 ( 13)
           0.2519 ( 17) -0.2491 ( 18)  0.1337 ( 56) -0.1532 ( 57) -0.1878 ( 64)
           0.2056 ( 66) -0.1786 ( 68)  0.1266 ( 79)  0.2228 ( 92) -0.1092 ( 93)
           0.2350 ( 99) -0.1243 (103)  0.1356 (116) -0.1467 (118)  0.1182 (120)
          -0.1013 (125)  0.1122 (127)  0.1634 (129) -0.1294 (137) -0.1093 (138)
           0.2027 (139)
 CRD 47=  -0.2575 (  1)  0.1555 (  3)  0.2641 (  8) -0.1735 (  9)  0.1002 ( 19)
           0.1036 ( 30)  0.1232 ( 33) -0.1382 ( 35)  0.1167 ( 54) -0.1040 ( 55)
          -0.2042 ( 78) -0.1367 ( 79) -0.1052 ( 82) -0.1029 ( 84) -0.1481 ( 85)
          -0.1816 ( 88) -0.1026 ( 89)  0.1435 ( 91) -0.1310 ( 94) -0.1250 (101)
           0.1573 (102)  0.1558 (113)  0.1147 (115)  0.1173 (117) -0.1174 (121)
           0.1280 (123) -0.1964 (124) -0.1471 (126) -0.1327 (128) -0.1301 (130)
           0.1354 (131)  0.1325 (136) -0.1060 (138)
 CRD 48=   0.2308 (  5) -0.2249 (  7) -0.1384 ( 12) -0.1384 ( 13) -0.1879 ( 14)
           0.1095 ( 15)  0.1142 ( 17) -0.1941 ( 19) -0.1138 ( 26) -0.1149 ( 37)
          -0.1167 ( 39)  0.1859 ( 63)  0.1036 ( 65)  0.1093 ( 66) -0.1277 ( 67)
          -0.1383 ( 74)  0.1087 ( 82) -0.1461 ( 85)  0.1569 ( 91) -0.1760 ( 93)
          -0.2113 ( 98) -0.1182 (100)  0.1323 (101)  0.1672 (110)  0.1700 (118)
          -0.2078 (121) -0.1292 (122) -0.1498 (124) -0.1106 (125)  0.1125 (129)
           0.1564 (130)  0.1307 (132) -0.1600 (137)
 CRD 49=  -0.1765 (  2)  0.2122 (  4) -0.1470 (  5)  0.2513 (  6)  0.1663 ( 10)
           0.2102 ( 25)  0.1068 ( 30) -0.1053 ( 31) -0.1195 ( 32) -0.1015 ( 43)
          -0.2284 ( 63)  0.1108 ( 64) -0.1978 ( 79)  0.1885 ( 89) -0.1928 (104)
           0.1998 (109)  0.2056 (121) -0.3118 (126)  0.3156 (128) -0.2158 (129)
 CRD 50=   0.2360 (  2) -0.1319 (  3)  0.1306 (  4) -0.2120 (  5)  0.1762 (  9)
          -0.1523 ( 10) -0.1154 ( 26) -0.1344 ( 27) -0.1239 ( 31)  0.1527 ( 32)
           0.1200 ( 36)  0.1276 ( 39)  0.1719 ( 62) -0.1949 ( 64) -0.1099 ( 78)
           0.1356 ( 82)  0.1288 ( 89) -0.1564 ( 92) -0.1064 ( 99)  0.1178 (102)
          -0.1323 (103) -0.1033 (106)  0.1128 (113)  0.1774 (117) -0.1681 (120)
           0.1101 (121) -0.1301 (122) -0.1503 (126) -0.1310 (128)  0.2397 (129)
          -0.1692 (132)
 CRD 51=  -0.1730 (  3)  0.1365 (  7)  0.1413 ( 11) -0.2907 ( 12) -0.2907 ( 13)
           0.1336 ( 24) -0.1804 ( 26)  0.1336 ( 28) -0.1051 ( 29) -0.1400 ( 30)
          -0.1135 ( 31)  0.1202 ( 50)  0.1040 ( 62)  0.1750 ( 75)  0.1255 ( 76)
           0.1415 ( 77) -0.1197 ( 82)  0.1621 ( 85)  0.1188 ( 86) -0.1652 ( 87)
          -0.1354 (106)  0.1020 (119) -0.2563 (120)  0.1950 (121)  0.1230 (124)
           0.1067 (125) -0.1240 (129) -0.1070 (130) -0.1007 (133) -0.1297 (135)
 CRD 52=  -0.1950 (  4)  0.2366 ( 10)  0.1560 ( 11) -0.2058 ( 15)  0.1723 ( 24)
           0.1723 ( 28) -0.1861 ( 40) -0.1861 ( 41)  0.1806 ( 42)  0.1806 ( 48)
          -0.2197 ( 52) -0.2197 ( 53)  0.1607 ( 72) -0.1234 ( 74)  0.1111 ( 83)
           0.1189 ( 96) -0.2155 ( 97)  0.1522 ( 99)  0.1003 (101) -0.1598 (105)
          -0.1344 (107) -0.1338 (108) -0.1270 (115)  0.1570 (136)  0.1943 (140)
 CRD 53=  -0.1396 (  1) -0.1193 (  7) -0.1445 (  8) -0.1724 ( 12) -0.1724 ( 13)
           0.1295 ( 16) -0.1118 ( 33) -0.1057 ( 35)  0.1032 ( 43)  0.1463 ( 74)
          -0.1859 ( 77)  0.1025 ( 81)  0.1089 ( 83) -0.1528 ( 84) -0.1386 ( 86)
           0.1933 ( 87) -0.1537 ( 91)  0.1483 ( 92)  0.1844 ( 93) -0.2257 (117)
          -0.1192 (118)  0.1607 (122) -0.1530 (124)  0.2656 (125) -0.1127 (126)
           0.1144 (128)  0.1027 (129)  0.1552 (130) -0.1197 (135)
 CRD 54=   0.1650 ( 14) -0.1542 ( 16)  0.1458 ( 44)  0.1458 ( 49) -0.1056 ( 51)
          -0.1056 ( 60) -0.1008 ( 65)  0.1220 ( 72)  0.2414 ( 80) -0.1831 ( 83)
           0.1308 ( 85) -0.1910 ( 86)  0.1134 ( 90) -0.1134 ( 92) -0.1811 ( 93)
           0.1825 ( 99)  0.1149 (100)  0.2347 (101) -0.1467 (103) -0.1526 (106)
          -0.1113 (113) -0.1545 (114) -0.3480 (115)  0.1719 (117)  0.1241 (118)
           0.1692 (122)  0.2104 (125) -0.1994 (136)

 THE DETERMINANT OF THE G MATRIX IS 10**(   -12)


                     --------------------
                     INTERNAL COORDINATES
                     --------------------

                 - - ATOMS - -         COORDINATE      COORDINATE
 NO.   TYPE    I  J  K  L  M  N        (BOHR,RAD)       (ANG,DEG)
 ----------------------------------------------------------------
   1 STRETCH   1  7                     2.0573264       1.0886903
   2 STRETCH   1  2                     2.9342609       1.5527441
   3 STRETCH   1  8                     2.0565647       1.0882872
   4 STRETCH   1  4                     2.8897089       1.5291682
   5 STRETCH   2  3                     2.9326233       1.5518775
   6 STRETCH   2 10                     2.0535317       1.0866823
   7 STRETCH   2  9                     2.0549132       1.0874133
   8 STRETCH   3 12                     2.0519154       1.0858269
   9 STRETCH   3 11                     2.0554288       1.0876862
  10 STRETCH   3  5                     2.9388269       1.5551604
  11 STRETCH   4 13                     2.0411976       1.0801553
  12 STRETCH   4  5                     2.6704372       1.4131346
  13 STRETCH   4  5                     2.6704372       1.4131346
  14 STRETCH   4 17                     3.9306300       2.0800000
  15 STRETCH   5  6                     2.9053466       1.5374433
  16 STRETCH   5 19                     3.7983493       2.0100000
  17 STRETCH   6 15                     2.0517646       1.0857471
  18 STRETCH   6 14                     2.0502872       1.0849654
  19 STRETCH   6 16                     2.0580553       1.0890760
  20 STRETCH  17 19                     3.7416576       1.9800001
  21 STRETCH  17 20                     2.1782126       1.1526605
  22 STRETCH  17 18                     2.1785562       1.1528424
  23 BEND      1  4 17                  1.9658040     112.6322735
  24 BEND      1  4  5                  1.9548858     112.0067031
  25 BEND      1  2  3                  1.8471472     105.8337403
  26 BEND      1  4 13                  2.1239635     121.6941444
  27 BEND      1  2 10                  1.9615138     112.3864620
  28 BEND      1  4  5                  1.9548858     112.0067031
  29 BEND      1  2  9                  1.9117660     109.5361240
  30 BEND      2  1  7                  1.9403820     111.1757014
  31 BEND      2  1  4                  1.8128274     103.8673589
  32 BEND      2  3  5                  1.8306707     104.8897071
  33 BEND      2  3 11                  1.9556134     112.0483915
  34 BEND      2  3 12                  1.9362174     110.9370871
  35 BEND      2  1  8                  1.9439486     111.3800480
  36 BEND      3  2  9                  1.9128361     109.5974359
  37 BEND      3  2 10                  1.9496875     111.7088663
  38 BEND      3  5 19                  1.5972342      91.5147762
  39 BEND      3  5  6                  2.0939745     119.9758988
  40 BEND      3  5  4                  1.8912559     108.3609787
  41 BEND      3  5  4                  1.8912559     108.3609787
  42 BEND      4  5  6                  2.1065885     120.6986298
  43 BEND      4  1  7                  1.9655082     112.6153254
  44 BEND      4  5 19                  2.2089054     126.5609550
  45 BEND      4 17 18                  1.8526337     106.1480940
  46 BEND      4 17 20                  1.8484315     105.9073237
  47 BEND      4 17 19                  1.7138360      98.1955717
  48 BEND      4  5  6                  2.1065885     120.6986298
  49 BEND      4  5 19                  2.2089054     126.5609550
  50 BEND      4  1  8                  1.9298330     110.5712852
  51 BEND      5  4 17                  1.2460215      71.3917747
  52 BEND      5  4 13                  2.1189144     121.4048524
  53 BEND      5  4 13                  2.1189144     121.4048524
  54 BEND      5  3 11                  1.9206130     110.0430185
  55 BEND      5  3 12                  1.9409733     111.2095800
  56 BEND      5  6 14                  1.9447041     111.4233366
  57 BEND      5  6 15                  1.9318285     110.6856211
  58 BEND      5  6 16                  1.8939883     108.5175362
  59 BEND      5 19 17                  1.1136898      63.8097259
  60 BEND      5  4 17                  1.2460215      71.3917747
  61 BEND      6  5 19                  1.4990462      85.8890213
  62 BEND      7  1  8                  1.8726649     107.2957931
  63 BEND      9  2 10                  1.8807225     107.7574606
  64 BEND     11  3 12                  1.8805682     107.7486229
  65 BEND     13  4 17                  1.8363792     105.2167769
  66 BEND     14  6 16                  1.8989840     108.8037682
  67 BEND     14  6 15                  1.9014464     108.9448538
  68 BEND     15  6 16                  1.8918842     108.3969824
  69 BEND     18 17 20                  2.2883662     131.1137255
  70 BEND     18 17 19                  1.8500543     106.0003054
  71 BEND     19 17 20                  1.8293669     104.8150024
  72 TORSION   1  4  5 19              -1.8449844    -105.7098184
  73 TORSION   1  4 17 18              -2.5381765    -145.4268033
  74 TORSION   1  4  5  6               2.5241916     144.6255279
  75 TORSION   1  4 17 20              -0.0494568      -2.8336655
  76 TORSION   1  4 17 19               1.8361853     105.2056706
  77 TORSION   1  2  3  5              -0.3757872     -21.5310188
  78 TORSION   1  2  3 11              -2.4590195    -140.8914369
  79 TORSION   1  2  3 12               1.7215484      98.6374600
  80 TORSION   1  4  5  3               0.0104559       0.5990771
  81 TORSION   2  3  5 19               2.4919076     142.7757894
  82 TORSION   2  3  5  6              -2.2880679    -131.0966313
  83 TORSION   2  3  5  4               0.2309962      13.2351064
  84 TORSION   2  1  4 17              -1.6112606     -92.3184343
  85 TORSION   2  1  4 13               2.4680248     141.4074039
  86 TORSION   2  1  4  5              -0.2462973     -14.1117962
  87 TORSION   3  2  1  4               0.3773099      21.6182667
  88 TORSION   3  2  1  8               2.4548316     140.6514923
  89 TORSION   3  2  1  7              -1.7408090     -99.7410115
  90 TORSION   3  5  4 17               1.8879068     108.1690903
  91 TORSION   3  5  4 13              -2.7052751    -155.0008475
  92 TORSION   3  5  6 16               1.2698039      72.7544069
  93 TORSION   3  5  6 14              -0.8206398     -47.0191997
  94 TORSION   3  5  6 15              -2.9393846    -168.4143294
  95 TORSION   3  5 19 17              -2.0313809    -116.3895499
  96 TORSION   4 17 19  5               0.0198577       1.1377610
  97 TORSION   4  5 19 17              -0.0360229      -2.0639617
  98 TORSION   4  1  2 10               2.5098141     143.8017555
  99 TORSION   4  5  6 16              -1.1725994     -67.1849976
 100 TORSION   4  5  6 14               3.0201421     173.0413958
 101 TORSION   4  5  6 15               0.9013974      51.6462662
 102 TORSION   4  5  3 11               2.3375298     133.9305923
 103 TORSION   4  5  3 12              -1.8631752    -106.7520749
 104 TORSION   4  1  2  9              -1.6834190     -96.4528030
 105 TORSION   5  4 17 19              -0.0267446      -1.5323549
 106 TORSION   5  4  1  7               1.8549316     106.2797515
 107 TORSION   5  4 17 20              -1.9123868    -109.5716910
 108 TORSION   5  4 17 18               1.8820788     107.8351712
 109 TORSION   5  3  2  9               1.6842279      96.4991531
 110 TORSION   5  3  2 10              -2.5158386    -144.1469360
 111 TORSION   5 19 17 18              -1.8910730    -108.3505038
 112 TORSION   5 19 17 20               1.9211636     110.0745684
 113 TORSION   5  4  1  8              -2.3334587    -133.6973368
 114 TORSION   6  5  4 17              -1.8815428    -107.8044588
 115 TORSION   6  5  4 13              -0.1915394     -10.9743966
 116 TORSION   6  5 19 17               2.1583340     123.6634294
 117 TORSION   6  5  3 11              -0.1815342     -10.4011454
 118 TORSION   6  5  3 12               1.9009461     108.9161873
 119 TORSION   7  1  2  9               2.4816473     142.1879188
 120 TORSION   7  1  4 17               0.4899683      28.0731133
 121 TORSION   7  1  2 10               0.3916951      22.4424773
 122 TORSION   7  1  4 13              -1.7139316     -98.2010484
 123 TORSION   8  1  4 17               2.5847632     148.0960250
 124 TORSION   8  1  2 10              -1.6958495     -97.1650189
 125 TORSION   8  1  4 13               0.3808634      21.8218633
 126 TORSION   8  1  2  9               0.3941027      22.5804226
 127 TORSION   9  2  3 12              -2.5016217    -143.3323681
 128 TORSION   9  2  3 11              -0.3990043     -22.8612650
 129 TORSION  10  2  3 12              -0.4185030     -23.9784572
 130 TORSION  10  2  3 11               1.6841144      96.4926458
 131 TORSION  11  3  5 19              -1.6847441     -96.5287247
 132 TORSION  12  3  5 19               0.3977362      22.7886081
 133 TORSION  13  4 17 19              -2.0961659    -120.1014619
 134 TORSION  13  4 17 20               2.3013772     131.8592020
 135 TORSION  13  4 17 18              -0.1873425     -10.7339358
 136 TORSION  13  4  5 19               1.7224699      98.6902570
 137 TORSION  14  6  5 19               0.7392959      42.3585360
 138 TORSION  15  6  5 19              -1.3794488     -79.0365936
 139 TORSION  16  6  5 19               2.8297397     162.1321426
 140 TORSION  17  4  5 19               0.0324665       1.8601948

     ------------------------------------------
     THE POINT GROUP IS C1 , NAXIS= 0, ORDER= 1
     ------------------------------------------

     DIMENSIONS OF THE SYMMETRY SUBSPACES ARE
 A   =   48

 ..... DONE SETTING UP THE RUN .....
 STEP CPU TIME =     0.18 TOTAL CPU TIME =          0.2 (      0.0 MIN)
 TOTAL WALL CLOCK TIME=          0.2 SECONDS, CPU UTILIZATION IS    78.26%


          -----------------------------
          STATIONARY POINT LOCATION RUN
          -----------------------------

 OBTAINING INITIAL HESSIAN, HESS=CALC    

     ---------------------------------
     HESSIAN MATRIX CONTROL PARAMETERS
     ---------------------------------
     METHOD=ANALYTIC   NVIB  =       2   VIBSIZ= 0.01000
     RDHESS=       F   PURIFY=       F   PRTIFC=       F
     VIBANL=       F   DECOMP=       F   PROJCT=       F
     SCLFAC= 1.00000   PRTSCN=       F   NPRT  =       0
     PULCOR=       F   NPUN  =       0   REDOVB=       T
     HSSTYP=GENERAL 
 Old integral subroutine is used

     ------------------------------
     CPHF RESPONSE SOLUTION OPTIONS
     ------------------------------
     POLAR  =       F     NWORD  =       0
     CPHF   =AO      

          ********************
          1 ELECTRON INTEGRALS
          ********************
 ...... END OF ONE-ELECTRON INTEGRALS ......
 STEP CPU TIME =     0.03 TOTAL CPU TIME =          0.2 (      0.0 MIN)
 TOTAL WALL CLOCK TIME=          0.3 SECONDS, CPU UTILIZATION IS    77.78%

          -------------
          GUESS OPTIONS
          -------------
          GUESS =HUCKEL            NORB  =       0          NORDER=       0
          MIX   =       F          PRTMO =       F          PUNMO =       F
          TOLZ  = 1.0E-08          TOLE  = 1.0E-05
          SYMDEN=       F          PURIFY=       F

 INITIAL GUESS ORBITALS GENERATED BY HUCKEL   ROUTINE.
 HUCKEL GUESS REQUIRES     39252 WORDS.

 SYMMETRIES FOR INITIAL GUESS ORBITALS FOLLOW.   BOTH SET(S).
    27 ORBITALS ARE OCCUPIED (    7 CORE ORBITALS).
     8=A        9=A       10=A       11=A       12=A       13=A       14=A   
    15=A       16=A       17=A       18=A       19=A       20=A       21=A   
    22=A       23=A       24=A       25=A       26=A       27=A       28=A   
    29=A       30=A       31=A       32=A       33=A       34=A       35=A   
    36=A       37=A   
 ...... END OF INITIAL ORBITAL SELECTION ......
 STEP CPU TIME =     0.02 TOTAL CPU TIME =          0.2 (      0.0 MIN)
 TOTAL WALL CLOCK TIME=          0.3 SECONDS, CPU UTILIZATION IS    76.67%

                    ----------------------
                    AO INTEGRAL TECHNOLOGY
                    ----------------------
     S,P,L SHELL ROTATED AXIS INTEGRALS, REPROGRAMMED BY
        KAZUYA ISHIMURA (IMS) AND JOSE SIERRA (SYNSTAR).
     S,P,D,L SHELL ROTATED AXIS INTEGRALS PROGRAMMED BY
        KAZUYA ISHIMURA (INSTITUTE FOR MOLECULAR SCIENCE).
     S,P,D,F,G SHELL TO TOTAL QUARTET ANGULAR MOMENTUM SUM 5,
        ERIC PROGRAM BY GRAHAM FLETCHER (ELORET AND NASA ADVANCED
        SUPERCOMPUTING DIVISION, AMES RESEARCH CENTER).
     S,P,D,F,G,L SHELL GENERAL RYS QUADRATURE PROGRAMMED BY
        MICHEL DUPUIS (PACIFIC NORTHWEST NATIONAL LABORATORY).

          --------------------
          2 ELECTRON INTEGRALS
          --------------------

 THE -PK- OPTION IS OFF, THE INTEGRALS ARE NOT IN SUPERMATRIX FORM.
 STORING   15000 INTEGRALS/RECORD ON DISK, USING 12 BYTES/INTEGRAL.
 TWO ELECTRON INTEGRAL EVALUATION REQUIRES   89734 WORDS OF MEMORY.
 SCHWARZ INEQUALITY OVERHEAD:      1164 INTEGRALS, T=        0.00
 II,JST,KST,LST =  1  1  1  1 NREC =         1 INTLOC =    1
 II,JST,KST,LST =  2  1  1  1 NREC =         1 INTLOC =    2
 II,JST,KST,LST =  3  1  1  1 NREC =         1 INTLOC =   34
 II,JST,KST,LST =  4  1  1  1 NREC =         1 INTLOC =  136
 II,JST,KST,LST =  5  1  1  1 NREC =         1 INTLOC = 1344
 II,JST,KST,LST =  6  1  1  1 NREC =         1 INTLOC = 1909
 II,JST,KST,LST =  7  1  1  1 NREC =         1 INTLOC = 6769
 II,JST,KST,LST =  8  1  1  1 NREC =         1 INTLOC = 8445
 II,JST,KST,LST =  9  1  1  1 NREC =         2 INTLOC = 5862
 II,JST,KST,LST = 10  1  1  1 NREC =         2 INTLOC = 9760
 II,JST,KST,LST = 11  1  1  1 NREC =         4 INTLOC = 5177
 II,JST,KST,LST = 12  1  1  1 NREC =         4 INTLOC =11946
 II,JST,KST,LST = 13  1  1  1 NREC =         7 INTLOC =11480
 II,JST,KST,LST = 14  1  1  1 NREC =         8 INTLOC =10703
 II,JST,KST,LST = 15  1  1  1 NREC =         9 INTLOC =11450
 II,JST,KST,LST = 16  1  1  1 NREC =        10 INTLOC =13906
 II,JST,KST,LST = 17  1  1  1 NREC =        12 INTLOC = 2714
 II,JST,KST,LST = 18  1  1  1 NREC =        13 INTLOC = 8614
 II,JST,KST,LST = 19  1  1  1 NREC =        15 INTLOC = 1404
 II,JST,KST,LST = 20  1  1  1 NREC =        16 INTLOC =11168
 II,JST,KST,LST = 21  1  1  1 NREC =        18 INTLOC = 7439
 II,JST,KST,LST = 22  1  1  1 NREC =        20 INTLOC = 5791
 II,JST,KST,LST = 23  1  1  1 NREC =        22 INTLOC = 6937
 II,JST,KST,LST = 24  1  1  1 NREC =        24 INTLOC = 4063
 II,JST,KST,LST = 25  1  1  1 NREC =        34 INTLOC =14478
 II,JST,KST,LST = 26  1  1  1 NREC =        38 INTLOC =  922
 II,JST,KST,LST = 27  1  1  1 NREC =        41 INTLOC = 6343
 SCHWARZ INEQUALITY TEST SKIPPED        7923 INTEGRAL BLOCKS.
 TOTAL NUMBER OF NONZERO TWO-ELECTRON INTEGRALS =              660057
         45 INTEGRAL RECORDS WERE STORED ON DISK FILE  8.
  ...... END OF TWO-ELECTRON INTEGRALS .....
 STEP CPU TIME =     0.20 TOTAL CPU TIME =          0.4 (      0.0 MIN)
 TOTAL WALL CLOCK TIME=          0.5 SECONDS, CPU UTILIZATION IS    86.00%

          --------------------------
                 RHF SCF CALCULATION
          --------------------------

     NUCLEAR ENERGY =       303.0191532048
     MAXIT =   30     NPUNCH=    2
     EXTRAP=T  DAMP=F  SHIFT=F  RSTRCT=F  DIIS=F  DEM=F  SOSCF=T
     DENSITY MATRIX CONV=  1.00E-05
     SOSCF WILL OPTIMIZE     567 ORBITAL ROTATIONS, SOGTOL=   0.250
     MEMORY REQUIRED FOR RHF ITERS=     49068 WORDS.

 ITER EX DEM     TOTAL ENERGY        E CHANGE  DENSITY CHANGE     ORB. GRAD
   1  0  0     -255.8132667782  -255.8132667782   0.324659236   0.000000000
          ---------------START SECOND ORDER SCF---------------
   2  1  0     -256.1497532376    -0.3364864594   0.100533971   0.022719772
   3  2  0     -256.1652822755    -0.0155290379   0.037294963   0.008583089
   4  3  0     -256.1674423849    -0.0021601094   0.004997907   0.001174628
   5  4  0     -256.1674931024    -0.0000507174   0.001089707   0.000356123
   6  5  0     -256.1674965904    -0.0000034880   0.000580512   0.000101436
   7  6  0     -256.1674972278    -0.0000006374   0.000233651   0.000040908
   8  7  0     -256.1674972782    -0.0000000504   0.000047705   0.000009412
   9  8  0     -256.1674972846    -0.0000000064   0.000010335   0.000003314
  10  9  0     -256.1674972850    -0.0000000004   0.000003033   0.000000711
  11 10  0     -256.1674972850    -0.0000000000   0.000001020   0.000000260

          -----------------
          DENSITY CONVERGED
          -----------------
     TIME TO FORM FOCK OPERATORS=       0.1 SECONDS (       0.0 SEC/ITER)
     TIME TO SOLVE SCF EQUATIONS=       0.0 SECONDS (       0.0 SEC/ITER)

 FINAL RHF ENERGY IS     -256.1674972850 AFTER  11 ITERATIONS

          ------------
          EIGENVECTORS
          ------------

                      1          2          3          4          5
                  -11.1076   -11.0642   -11.0609   -11.0529   -11.0508
                     A          A          A          A          A   
    1  C  1  S   -0.000532  -0.000188  -0.004312   0.988782   0.079080
    2  C  1  S    0.000110  -0.000037   0.000025   0.037642  -0.002544
    3  C  1  X    0.000018  -0.000016  -0.000135  -0.000037   0.002399
    4  C  1  Y    0.000056   0.000026   0.000011  -0.000192   0.003379
    5  C  1  Z   -0.000061  -0.000031  -0.000101  -0.000114  -0.000025
    6  C  2  S   -0.000623   0.000132  -0.015572  -0.078147   0.988773
    7  C  2  S    0.000104   0.000015  -0.006106  -0.008502   0.036493
    8  C  2  X   -0.000123   0.000009  -0.002540  -0.002213  -0.000423
    9  C  2  Y   -0.000086  -0.000013   0.003187  -0.003478  -0.000332
   10  C  2  Z    0.000130  -0.000024  -0.000733   0.000027  -0.000257
   11  C  3  S   -0.002984  -0.002786   0.991830   0.003038   0.016871
   12  C  3  S   -0.005435   0.000048   0.037182   0.000632  -0.004944
   13  C  3  X   -0.003552   0.000020   0.000071  -0.000321   0.002703
   14  C  3  Y   -0.001420  -0.000097  -0.000154   0.000154  -0.003079
   15  C  3  Z    0.001138  -0.000080   0.000016  -0.000138   0.000719
   16  C  4  S    0.002454  -0.000502  -0.001134  -0.005166  -0.002467
   17  C  4  S   -0.006452   0.000122   0.000115  -0.005971  -0.000487
   18  C  4  X   -0.000155   0.000058   0.000034   0.003923   0.000400
   19  C  4  Y    0.004407   0.000007   0.000011  -0.001463   0.000041
   20  C  4  Z   -0.000027  -0.000088  -0.000059  -0.000805  -0.000027
   21  C  5  S    0.992313   0.003929   0.003979   0.000555   0.000810
   22  C  5  S    0.034510  -0.005499  -0.005440   0.000198   0.000060
   23  C  5  X   -0.000671  -0.002553   0.003762  -0.000031   0.000109
   24  C  5  Y    0.001761   0.002290   0.001563   0.000065  -0.000035
   25  C  5  Z   -0.000730   0.002611  -0.001075  -0.000057   0.000046
   26  C  6  S   -0.002965   0.991947   0.002783   0.000209  -0.000077
   27  C  6  S   -0.005422   0.037760   0.000266  -0.000030  -0.000016
   28  C  6  X    0.002407   0.000047  -0.000076   0.000006  -0.000007
   29  C  6  Y   -0.002261  -0.000014  -0.000060  -0.000038   0.000004
   30  C  6  Z   -0.002281  -0.000251   0.000033  -0.000013  -0.000032
   31  H  7  S    0.000027   0.000008   0.000041  -0.006957  -0.000471
   32  H  8  S   -0.000044  -0.000008  -0.000061  -0.006998  -0.000428
   33  H  9  S   -0.000010   0.000007   0.000191   0.000642  -0.007022
   34  H 10  S   -0.000098   0.000007   0.000232   0.000680  -0.006957
   35  H 11  S    0.000050  -0.000170  -0.007012  -0.000119   0.000007
   36  H 12  S    0.000035   0.000042  -0.006997  -0.000016  -0.000028
   37  H 13  S    0.000092  -0.000125  -0.000071   0.000142  -0.000035
   38  H 14  S    0.000029  -0.006949  -0.000080  -0.000005  -0.000015
   39  H 15  S    0.000035  -0.006982  -0.000069  -0.000020  -0.000000
   40  H 16  S   -0.000077  -0.006997  -0.000015   0.000006   0.000002
   41  B 17  S    0.000312  -0.000005   0.000002   0.000003  -0.000003
   42  B 17  S   -0.001988   0.000058   0.000039   0.000048   0.000017
   43  B 17  X    0.000957  -0.000020   0.000037   0.000050  -0.000016
   44  B 17  Y    0.001329  -0.000033  -0.000022   0.000038  -0.000004
   45  B 17  Z    0.001581  -0.000018  -0.000002  -0.000040   0.000006
   46  H 18  S    0.000092   0.000048  -0.000036  -0.000050  -0.000001
   47  H 19  S   -0.001203  -0.000206  -0.000038   0.000012  -0.000041
   48  H 20  S    0.000072  -0.000020   0.000010   0.000027  -0.000008

                      6          7          8          9         10
                  -11.0284    -7.3791    -1.1034    -0.9850    -0.9316
                     A          A          A          A          A   
    1  C  1  S    0.006320   0.000018  -0.089434   0.098431   0.102723
    2  C  1  S   -0.005333   0.000120   0.234169  -0.273473  -0.295715
    3  C  1  X   -0.003797  -0.000044   0.021388   0.036469  -0.074238
    4  C  1  Y    0.001406   0.000140  -0.047962   0.033893  -0.026633
    5  C  1  Z    0.000849  -0.000006  -0.006512  -0.001674   0.015382
    6  C  2  S    0.002129  -0.000006  -0.089474   0.116041  -0.068562
    7  C  2  S    0.000116   0.000056   0.233347  -0.323434   0.196674
    8  C  2  X   -0.000230   0.000023   0.050060  -0.020106  -0.002098
    9  C  2  Y    0.000066  -0.000006  -0.001287  -0.025359  -0.106984
   10  C  2  Z    0.000134   0.000019   0.001664  -0.000462   0.013371
   11  C  3  S    0.001275   0.000015  -0.102624   0.027857  -0.148168
   12  C  3  S    0.000149   0.000073   0.270800  -0.075644   0.428055
   13  C  3  X    0.000030  -0.000006   0.024763   0.074539  -0.028335
   14  C  3  Y   -0.000166  -0.000169   0.046921  -0.036364  -0.012827
   15  C  3  Z   -0.000045   0.000037  -0.019391  -0.006966  -0.002670
   16  C  4  S    0.992122   0.000459  -0.111958  -0.017564   0.129698
   17  C  4  S    0.035819  -0.002575   0.285706   0.049101  -0.366187
   18  C  4  X   -0.000039  -0.001333  -0.032523   0.067357   0.026644
   19  C  4  Y   -0.001873  -0.000133  -0.068669  -0.069746  -0.008106
   20  C  4  Z   -0.000075  -0.002169   0.014874  -0.011573  -0.002910
   21  C  5  S   -0.001779   0.000398  -0.132741  -0.100890   0.002279
   22  C  5  S   -0.006769  -0.002216   0.354811   0.287920  -0.005143
   23  C  5  X    0.000504  -0.001132  -0.040730   0.073121  -0.060481
   24  C  5  Y   -0.004400  -0.000729   0.050555  -0.021148  -0.144689
   25  C  5  Z    0.001016  -0.001739  -0.009023  -0.057846   0.019727
   26  C  6  S    0.000542   0.000002  -0.057618  -0.146052  -0.027119
   27  C  6  S    0.000244   0.000130   0.154376   0.408564   0.077810
   28  C  6  X   -0.000055   0.000066  -0.027484  -0.023831  -0.010570
   29  C  6  Y   -0.000040   0.000002   0.024564   0.026151  -0.018237
   30  C  6  Z    0.000043   0.000016   0.023127   0.020830   0.002623
   31  H  7  S   -0.000085  -0.000349   0.043426  -0.067156  -0.080684
   32  H  8  S   -0.000030  -0.000061   0.042527  -0.068871  -0.086785
   33  H  9  S   -0.000029  -0.000017   0.046428  -0.081194   0.056842
   34  H 10  S   -0.000130   0.000001   0.041992  -0.081654   0.059680
   35  H 11  S   -0.000071  -0.000060   0.051715  -0.011946   0.132756
   36  H 12  S    0.000006  -0.000250   0.051372  -0.020014   0.121081
   37  H 13  S   -0.006795  -0.000163   0.052684   0.020127  -0.107971
   38  H 14  S   -0.000104   0.000104   0.028626   0.099344   0.031732
   39  H 15  S   -0.000022  -0.000311   0.029818   0.103491   0.012413
   40  H 16  S   -0.000085  -0.000041   0.032079   0.103838   0.022726
   41  B 17  S    0.000387   0.990871  -0.018081  -0.012193   0.018215
   42  B 17  S   -0.002555   0.036364   0.033898   0.025430  -0.037983
   43  B 17  X    0.001249  -0.000246  -0.010756  -0.002584   0.009795
   44  B 17  Y   -0.000973   0.000599  -0.002608  -0.007190  -0.008784
   45  B 17  Z    0.001917  -0.000420  -0.015056  -0.012145   0.017215
   46  H 18  S    0.000316  -0.006358   0.007464   0.008576  -0.012571
   47  H 19  S    0.000080  -0.002513   0.013362   0.017847   0.004307
   48  H 20  S    0.000305  -0.006344   0.009200   0.002808  -0.011850

                     11         12         13         14         15
                   -0.8820    -0.7651    -0.6855    -0.6498    -0.6197
                     A          A          A          A          A   
    1  C  1  S   -0.085047   0.107579  -0.028386  -0.000045  -0.009446
    2  C  1  S    0.249473  -0.334379   0.090272   0.000841   0.028344
    3  C  1  X   -0.084347  -0.037447  -0.132127  -0.026310  -0.141473
    4  C  1  Y    0.007938  -0.139504  -0.032408   0.046559   0.226336
    5  C  1  Z    0.003308  -0.018449   0.061232   0.179090  -0.101372
    6  C  2  S   -0.082342  -0.122996  -0.004610  -0.006147   0.000990
    7  C  2  S    0.242597   0.384411   0.016008   0.019496  -0.008441
    8  C  2  X   -0.036822  -0.129492   0.034239  -0.071899  -0.209766
    9  C  2  Y    0.076686  -0.034832   0.132069   0.015524   0.026463
   10  C  2  Z   -0.011616  -0.033980  -0.008235   0.184956  -0.124352
   11  C  3  S    0.069581   0.082765   0.052873  -0.001459   0.006296
   12  C  3  S   -0.205012  -0.259571  -0.169601   0.004571  -0.022515
   13  C  3  X   -0.066288  -0.083498   0.189732  -0.030559   0.030167
   14  C  3  Y    0.015867   0.123544   0.134159  -0.007417  -0.221576
   15  C  3  Z   -0.009225  -0.040865  -0.048440   0.211728  -0.094102
   16  C  4  S    0.071513  -0.041713   0.101325   0.015174   0.023090
   17  C  4  S   -0.203634   0.125131  -0.332202  -0.045773  -0.074311
   18  C  4  X   -0.044660   0.119377  -0.104826   0.100035   0.184424
   19  C  4  Y    0.086218  -0.111235  -0.219399   0.021451   0.069558
   20  C  4  Z   -0.011539  -0.031511   0.124476   0.143578  -0.096787
   21  C  5  S    0.068206  -0.023882  -0.117487   0.016037  -0.049307
   22  C  5  S   -0.207102   0.073409   0.399123  -0.050826   0.181236
   23  C  5  X    0.105296   0.085540  -0.041522   0.118830   0.172952
   24  C  5  Y   -0.117366   0.154624  -0.056649   0.027030  -0.167601
   25  C  5  Z   -0.070036  -0.044315   0.031248   0.149384  -0.072315
   26  C  6  S   -0.146608   0.012405   0.026076  -0.005242   0.025921
   27  C  6  S    0.428703  -0.038691  -0.081049   0.017225  -0.085076
   28  C  6  X    0.036494   0.010531  -0.106863   0.118968  -0.136273
   29  C  6  Y   -0.035166   0.059306   0.049722  -0.015604   0.111929
   30  C  6  Z   -0.039508   0.004706   0.117819   0.057596   0.193426
   31  H  7  S    0.080233  -0.161789   0.065645   0.136272   0.033907
   32  H  8  S    0.090191  -0.154305   0.014833  -0.066389   0.213093
   33  H  9  S    0.081996   0.186881  -0.011657  -0.096717   0.155355
   34  H 10  S    0.084716   0.175038  -0.012182   0.140369   0.048437
   35  H 11  S   -0.055103  -0.127714  -0.153836  -0.075522   0.163864
   36  H 12  S   -0.067530  -0.130019  -0.121433   0.158961  -0.032620
   37  H 13  S   -0.054639   0.068399  -0.310122  -0.025285   0.116813
   38  H 14  S    0.139522  -0.048865  -0.045326   0.035969  -0.072579
   39  H 15  S    0.137590   0.008755  -0.092066   0.087056  -0.095583
   40  H 16  S    0.138989  -0.017346  -0.080743  -0.070140  -0.131846
   41  B 17  S    0.022811  -0.018805  -0.005635  -0.149860  -0.042683
   42  B 17  S   -0.049377   0.042101   0.015341   0.373585   0.109076
   43  B 17  X    0.014667   0.003419  -0.015932  -0.006955   0.044005
   44  B 17  Y    0.001190   0.001569  -0.035373   0.018993  -0.007042
   45  B 17  Z    0.017852  -0.022374   0.006519   0.003290  -0.012185
   46  H 18  S   -0.012843   0.023854  -0.013045   0.192108   0.087556
   47  H 19  S   -0.010776  -0.004439   0.045696   0.091777   0.057351
   48  H 20  S   -0.015600   0.004956   0.009558   0.205517   0.029595

                     16         17         18         19         20
                   -0.5920    -0.5567    -0.5549    -0.5322    -0.4911
                     A          A          A          A          A   
    1  C  1  S    0.002695   0.011039  -0.011383   0.005877  -0.010112
    2  C  1  S   -0.008410  -0.036393   0.039552  -0.020573   0.042335
    3  C  1  X    0.073545   0.055052  -0.071923  -0.107861  -0.054202
    4  C  1  Y   -0.084922  -0.064791   0.001029  -0.006493  -0.185283
    5  C  1  Z   -0.148834  -0.092305  -0.197022  -0.326338   0.006068
    6  C  2  S   -0.000827  -0.012130   0.008559  -0.000970  -0.025227
    7  C  2  S    0.004460   0.041903  -0.028193   0.002783   0.102866
    8  C  2  X    0.108786  -0.041504   0.094532  -0.023611   0.330644
    9  C  2  Y   -0.042006   0.036187   0.006099   0.099938   0.023139
[...]
 18   H            X  0.00168089 -0.00237344 -0.12773625  0.63248467  0.61586506
                   Y -0.00618013  0.00410304 -0.06456008  0.22297040  0.21757142
                   Z  0.01035620 -0.00889866  0.02335662 -0.07424665 -0.07779748
 19   H            X -0.00050694 -0.00782474 -0.09310690 -0.01988771 -0.00723238
                   Y  0.00489802 -0.00112613  0.93403323  0.16638267  0.00153966
                   Z -0.00312058 -0.00463531 -0.13057088 -0.02910889  0.00440191
 20   H            X  0.00638526 -0.00199225  0.08320550 -0.37939462  0.37788165
                   Y -0.00336895 -0.00058311 -0.06068735  0.20227412 -0.19998082
                   Z  0.00210188  0.00195145 -0.09780020  0.51622547 -0.50467768

 TRANS. SAYVETZ    X -0.00000033 -0.00000060  0.00000131 -0.00000011  0.00000002
                   Y -0.00000012 -0.00000003  0.00000057  0.00000022  0.00000000
                   Z  0.00000007  0.00000019  0.00000005  0.00000003  0.00000000
               TOTAL  0.00000036  0.00000063  0.00000143  0.00000024  0.00000002

   ROT. SAYVETZ    X -0.00006453  0.00003399 -0.00006200  0.00003882 -0.00001601
                   Y  0.00023716 -0.00035764  0.00001070 -0.00004341 -0.00003028
                   Z  0.00006645  0.00001512  0.00007828  0.00004723 -0.00000971
               TOTAL  0.00025461  0.00035957  0.00010043  0.00007498  0.00003560

                           51          52          53          54          55
       FREQUENCY:      3572.49     3618.73     3623.32     3628.90     3734.87  
        SYMMETRY:         A           A           A           A           A   
    REDUCED MASS:      1.03885     1.06587     1.06669     1.06997     1.11235
    IR INTENSITY:      0.00986     0.03122     0.04687     0.04143     0.00894

  1   C            X -0.00003019 -0.01892746 -0.00984227  0.00571373 -0.00828587
                   Y  0.00010258  0.05345550  0.03534524 -0.02216243 -0.00107878
                   Z -0.00000519 -0.00164705 -0.00008642 -0.00042985 -0.08273089
  2   C            X -0.00009082  0.04010074 -0.03939217  0.04163788 -0.00640185
                   Y -0.00001064  0.00046953 -0.00508749  0.00138877  0.00273909
                   Z  0.00000804  0.00701927 -0.00691346  0.00917774  0.03618303
  3   C            X -0.00012928 -0.00336115  0.01078255  0.00970147 -0.00131844
                   Y  0.00004800 -0.00768452  0.04276929  0.05144565 -0.00252616
                   Z  0.00004485  0.00135154 -0.00995740 -0.01389225 -0.00780792
  4   C            X  0.00004283  0.00036697 -0.00000076  0.00001200 -0.00832219
                   Y  0.00029309 -0.00226718 -0.00136579  0.00102707 -0.00773695
                   Z  0.00007292  0.00059989  0.00062076 -0.00067618  0.00880405
  5   C            X -0.00198999  0.00046717 -0.00085320 -0.00184652  0.00011611
                   Y  0.00149615  0.00025179 -0.00092513 -0.00058195  0.00086878
                   Z  0.00112981 -0.00015514  0.00052079  0.00065787 -0.00002427
  6   C            X  0.02633990 -0.00004093 -0.00016210 -0.00007135  0.00023902
                   Y -0.02898680 -0.00003033  0.00001032 -0.00013103  0.00009807
                   Z -0.03427970  0.00005533 -0.00010421 -0.00024285  0.00002068
  7   H            X  0.00012778  0.03417913  0.02353869 -0.01503294 -0.04899978
                   Y -0.00068013 -0.25619199 -0.16477487  0.10145062  0.33623441
                   Z -0.00120193 -0.42855909 -0.27841534  0.17216256  0.55057901
  8   H            X  0.00011766  0.16418581  0.10200503 -0.06093951  0.15373388
                   Y -0.00046261 -0.34682452 -0.21593319  0.12762078 -0.32636810
                   Z  0.00077950  0.45009674  0.28237258 -0.16803432  0.41750497
  9   H            X  0.00036469 -0.20926565  0.20361366 -0.21304220 -0.11458639
                   Y  0.00012381 -0.03987789  0.03461406 -0.04086344 -0.01939049
                   Z  0.00071894 -0.36321216  0.35485739 -0.37396659 -0.20089459
 10   H            X  0.00070515 -0.24669515  0.23543107 -0.23295122  0.18991090
                   Y -0.00002963  0.01218382 -0.01135321  0.01190789 -0.00994670
                   Z -0.00089522  0.28316070 -0.27159898  0.27120635 -0.21469520
 11   H            X  0.00023619  0.02391888 -0.11898095 -0.13369003  0.01549345
                   Y  0.00085953  0.06970034 -0.35754029 -0.40181218  0.04540349
                   Z  0.00071647  0.05410563 -0.28109528 -0.31852646  0.03536648
 12   H            X  0.00026847 -0.00340786  0.01433253  0.01466708  0.00106509
                   Y  0.00022234  0.02486794 -0.13217677 -0.15624839 -0.01769331
                   Z -0.00029545 -0.07120890  0.39192120  0.46931622  0.05362076
 13   H            X -0.00201906  0.01238263  0.01037739 -0.01154507  0.09407753
                   Y -0.00199605  0.01135907  0.00811374 -0.01034558  0.08149195
                   Z  0.00195845 -0.01064954 -0.00912614  0.01081266 -0.09497121
 14   H            X -0.06390564  0.00001601  0.00019786  0.00014522  0.00000331
                   Y  0.48807233 -0.00024708 -0.00082465  0.00054825  0.00006906
                   Z -0.22518774 -0.00005598  0.00035448 -0.00031760 -0.00003914
 15   H            X -0.45993988  0.00018829  0.00090472  0.00000845 -0.00240834
                   Y -0.23533032  0.00025588  0.00040342 -0.00017229 -0.00122049
                   Z  0.03145776  0.00010081 -0.00018836 -0.00014717  0.00019498
 16   H            X  0.23673624 -0.00013921  0.00007411  0.00081343 -0.00037076
                   Y  0.06926304 -0.00005808 -0.00007330  0.00018411 -0.00016751
                   Z  0.58145563 -0.00036747  0.00023267  0.00221600 -0.00107188
 17   B            X -0.00011114  0.00014685 -0.00009468 -0.00034131  0.00007256
                   Y -0.00010335 -0.00007027  0.00019356  0.00034451  0.00013413
                   Z  0.00009649  0.00019138  0.00018493 -0.00001140 -0.00043305
 18   H            X  0.00108282 -0.00009816 -0.00065045  0.00003332 -0.00043307
                   Y  0.00039980  0.00018035 -0.00023535 -0.00033869 -0.00020652
                   Z -0.00017390 -0.00016620 -0.00006605  0.00020258  0.00028852
 19   H            X  0.00031461  0.00022832 -0.00175968 -0.00217821 -0.00053231
                   Y  0.00270893 -0.00013122 -0.00396775 -0.00449663 -0.00016539
                   Z  0.00238142 -0.00051643 -0.00020766  0.00027944 -0.00035874
 20   H            X -0.00033513  0.00137243  0.00188827  0.00081161 -0.00230104
                   Y  0.00014801 -0.00066900 -0.00073252 -0.00014405  0.00141434
                   Z  0.00050552 -0.00083147 -0.00150487 -0.00071666  0.00162573

 TRANS. SAYVETZ    X -0.00000005  0.00000010 -0.00000018 -0.00000018  0.00000014
                   Y -0.00000043 -0.00000020 -0.00000056 -0.00000016  0.00000001
                   Z -0.00000031  0.00000026 -0.00000030 -0.00000028 -0.00000026
               TOTAL  0.00000053  0.00000035  0.00000066  0.00000037  0.00000030

   ROT. SAYVETZ    X  0.00011156  0.00060847  0.00113006  0.00042272 -0.00000128
                   Y -0.00010915  0.00118985 -0.00077952  0.00032200 -0.00010736
                   Z -0.00010439 -0.00012748 -0.00001351 -0.00007015  0.00008719
               TOTAL  0.00018777  0.00134247  0.00137291  0.00053600  0.00013831

                           56          57          58          59          60
       FREQUENCY:      3738.01     3740.13     3745.20     3745.76     3770.92  
        SYMMETRY:         A           A           A           A           A   
    REDUCED MASS:      1.09706     1.11191     1.10869     1.10816     1.11072
    IR INTENSITY:      0.14803     0.04920     0.01263     0.02129     0.03373

  1   C            X -0.00497554  0.00246957 -0.00217903 -0.00142895  0.00002318
                   Y  0.00206837  0.00144326 -0.00061726 -0.00020606  0.00002820
                   Z -0.01583146  0.02677154 -0.02022593 -0.01146462 -0.00008690
  2   C            X -0.00136959 -0.00888841  0.00874702  0.00453999 -0.00000592
                   Y -0.00000426  0.00374187 -0.00425991 -0.00227409  0.00002436
                   Z  0.00151454  0.05079598 -0.05813231 -0.03102100 -0.00002513
  3   C            X  0.00120676 -0.01163463 -0.00802827 -0.00511723 -0.00003154
                   Y  0.00090707 -0.01722438 -0.01059859 -0.00720918 -0.00047072
                   Z  0.00744279 -0.06767307 -0.04632720 -0.02988641 -0.00144432
  4   C            X  0.05037269  0.00563812 -0.00063654  0.00274708 -0.00026339
                   Y  0.04514863  0.00500964 -0.00050608  0.00227817  0.00007665
                   Z -0.04944795 -0.00566368  0.00062013 -0.00263932  0.00028055
  5   C            X -0.00037946  0.00016903 -0.00039476  0.00015230  0.00022225
                   Y -0.00411322 -0.00046268  0.00052778 -0.00071966  0.00015204
                   Z -0.00048724  0.00025758  0.00040017 -0.00058490 -0.00018286
  6   C            X  0.00204192  0.00279117  0.02676959 -0.04516299 -0.05234999
                   Y -0.00097630 -0.00018736 -0.01018366  0.01878695 -0.07342650
                   Z  0.00351897  0.00296420  0.03526098 -0.06108009  0.01712462
  7   H            X -0.00878267  0.01577148 -0.01165116 -0.00642283 -0.00004045
                   Y  0.05854650 -0.11600896  0.08787538  0.04894528  0.00035159
                   Z  0.09396172 -0.18674631  0.14009456  0.07810823  0.00053389
  8   H            X  0.03865845 -0.04757390  0.03710865  0.02145974  0.00007691
                   Y -0.07828918  0.10356439 -0.08081302 -0.04652775 -0.00024063
                   Z  0.09855971 -0.13199362  0.10288111  0.05922072  0.00036762
  9   H            X -0.00156178 -0.16723624  0.20532997  0.11049818  0.00033693
                   Y  0.00053565 -0.03395771  0.03652610  0.01948933 -0.00000574
                   Z -0.00309956 -0.28917279  0.34827347  0.18705335  0.00046387
 10   H            X  0.01116401  0.26793552 -0.30204806 -0.16066010  0.00008440
                   Y -0.00095026 -0.01088981  0.01417358  0.00757241  0.00001266
                   Z -0.01299582 -0.30255144  0.34078953  0.18126321 -0.00004341
 11   H            X -0.01210295  0.12425892  0.08229737  0.05396252  0.00245419
                   Y -0.03591147  0.37501880  0.25214179  0.16478514  0.00702415
                   Z -0.02820311  0.29097975  0.19563385  0.12774761  0.00544996
 12   H            X -0.00214917  0.01473664  0.01199316  0.00738654  0.00073007
                   Y  0.02011700 -0.17358812 -0.12578701 -0.08014806 -0.00289512
                   Z -0.05781295  0.50249874  0.35510431  0.22734467  0.00883819
 13   H            X -0.56330070 -0.06128172  0.00501702 -0.02981086  0.00135064
                   Y -0.47908344 -0.05248154  0.00505298 -0.02490421  0.00135381
                   Z  0.56508112  0.06105970 -0.00616277  0.02974711 -0.00150919
 14   H            X -0.00297270 -0.00180131 -0.02836353  0.05019077 -0.06795381
                   Y  0.02272025  0.01500900  0.23497101 -0.41455782  0.52897815
                   Z -0.00948678 -0.00659804 -0.10598565  0.18724979 -0.24459123
 15   H            X -0.00969237 -0.01902196 -0.15113849  0.24795176  0.65160648
                   Y -0.00492811 -0.00943381 -0.07830810  0.12928264  0.33429414
                   Z  0.00087464  0.00164848  0.01285180 -0.02087589 -0.04460892
 16   H            X -0.01302606 -0.01246100 -0.13546715  0.23229120  0.03434034
                   Y -0.00376121 -0.00351123 -0.03966516  0.06856778  0.00703316
                   Z -0.03183428 -0.03014676 -0.32901941  0.56524511  0.08878046
 17   B            X  0.00058544 -0.00007024  0.00003057  0.00007947  0.00010865
                   Y -0.00121981  0.00016592  0.00013909  0.00007832 -0.00009397
                   Z  0.00084900  0.00018996 -0.00020792  0.00014992 -0.00001836
 18   H            X -0.00339168 -0.00048309 -0.00082080 -0.00095294 -0.00040660
                   Y -0.00032577 -0.00011087 -0.00025492 -0.00019701 -0.00010442
                   Z  0.00113976  0.00029603  0.00057199  0.00046538 -0.00002714
 19   H            X  0.00313612 -0.00092584 -0.00103163  0.00013240  0.00009033
                   Y  0.00325829 -0.00323169 -0.00237525 -0.00023176  0.00177301
                   Z  0.00741425  0.00106532 -0.00043151  0.00279568  0.00021364
 20   H            X -0.00076635  0.00143067 -0.00063335  0.00021821  0.00012607
                   Y -0.00095760 -0.00075077  0.00020699  0.00018777 -0.00001547
                   Z  0.00164613 -0.00115033  0.00028319  0.00037905 -0.00019917

 TRANS. SAYVETZ    X -0.00000065 -0.00000008 -0.00000002 -0.00000010 -0.00000000
                   Y -0.00000015 -0.00000003 -0.00000008  0.00000008 -0.00000008
                   Z  0.00000003  0.00000000 -0.00000015 -0.00000013  0.00000003
               TOTAL  0.00000066  0.00000009  0.00000017  0.00000018  0.00000009

   ROT. SAYVETZ    X -0.00009513  0.00001430 -0.00000296  0.00000710  0.00000596
                   Y  0.00008866 -0.00009198  0.00004414  0.00003451  0.00005003
                   Z -0.00001332 -0.00012847 -0.00005940  0.00001005  0.00000829
               TOTAL  0.00013073  0.00015865  0.00007406  0.00003664  0.00005106

 REFERENCE ON SAYVETZ CONDITIONS - A. SAYVETZ, J.CHEM.PHYS., 7, 383-389(1939).

 NOTE - THE MODES J,K ARE ORTHONORMALIZED ACCORDING TO
 SUM ON I   M(I) * (X(I,J)*X(I,K) + Y(I,J)*Y(I,K) + Z(I,J)*Z(I,K)) = DELTA(J,K)

  MODE FREQ(CM**-1)  SYMMETRY  RED. MASS  IR INTENS.
     1     714.920    A        1.846510    3.916848
     2      42.997    A        1.726484    0.029632
     3       3.945    A        3.058837    0.031187
     4       2.253    A        2.863366    0.099891
     5       0.225    A        4.699945    0.000767
     6       0.011    A        4.804579    0.000001
     7       0.050    A        4.806452    0.000030
     8       1.842    A        3.029762    0.053443
     9     211.711    A        1.872867    0.108819
    10     228.080    A        1.048899    0.006009
    11     324.651    A        2.145940    0.104127
    12     366.925    A        2.238931    0.190374
    13     444.046    A        2.272076    0.203603
    14     552.451    A        1.714624    0.303214
    15     600.824    A        1.931799    0.644914
    16     716.352    A        3.495328    0.356919
    17     759.871    A        2.169475    0.025251
    18     884.049    A        1.868165    0.032498
    19     922.195    A        1.790641    0.050565
    20    1002.745    A        1.978572    0.067818
    21    1025.437    A        1.541359    0.040263
    22    1065.574    A        1.466296    0.161799
    23    1094.742    A        2.186513    0.048444
    24    1133.407    A        1.682615    0.013274
    25    1173.850    A        1.412632    0.010456
    26    1216.846    A        1.354582    0.394724
    27    1244.770    A        1.359020    0.834017
    28    1271.067    A        1.600155    0.064725
    29    1324.227    A        1.862515    0.113266
    30    1370.476    A        1.337672    0.333376
    31    1416.756    A        1.530369    0.300172
    32    1455.015    A        1.161859    2.821116
    33    1475.052    A        1.214505    0.002248
    34    1495.976    A        1.190718    0.016997
    35    1510.587    A        1.423883    0.025220
    36    1529.724    A        1.104076    0.592614
    37    1550.607    A        1.075355    0.031662
    38    1606.236    A        1.924477    0.029843
    39    1623.057    A        1.912454    0.078319
    40    1636.922    A        1.627761    0.041756
    41    1708.109    A        1.294565    0.035035
    42    1774.939    A        2.136827    0.231957
    43    1797.855    A        1.091063    0.004393
    44    1800.387    A        1.084530    0.093192
    45    1810.643    A        1.337232    0.034175
    46    1821.832    A        1.105755    0.006552
    47    1839.504    A        1.116898    0.005652
    48    2893.189    A        1.058832    0.822131
    49    3156.719    A        1.062974    0.462406
    50    3310.266    A        1.134513    0.459239
    51    3572.486    A        1.038848    0.009860
    52    3618.730    A        1.065869    0.031217
    53    3623.317    A        1.066691    0.046865
    54    3628.902    A        1.069967    0.041435
    55    3734.865    A        1.112351    0.008937
    56    3738.007    A        1.097056    0.148027
    57    3740.130    A        1.111907    0.049204
    58    3745.204    A        1.108691    0.012630
    59    3745.759    A        1.108161    0.021288
    60    3770.924    A        1.110722    0.033727

     -------------------------------
     THERMOCHEMISTRY AT T=  298.15 K
     -------------------------------

 USING IDEAL GAS, RIGID ROTOR, HARMONIC NORMAL MODE APPROXIMATIONS.
 P=  1.01325E+05 PASCAL.
 ALL FREQUENCIES ARE SCALED BY   1.00000
 THE MOMENTS OF INERTIA ARE (IN AMU*BOHR**2)
            478.47203           733.89003           928.56635
 THE ROTATIONAL SYMMETRY NUMBER IS  1.0
 THE ROTATIONAL CONSTANTS ARE (IN GHZ)
      3.76843     2.45689     1.94180
   2 IMAGINARY FREQUENCY VIBRATION(S) IS(ARE) EXCLUDED
     FROM THE FOLLOWING THERMOCHEMICAL ANALYSIS.
      9 -     60 VIBRATIONAL MODES ARE USED IN THERMOCHEMISTRY.
 THE HARMONIC ZERO POINT ENERGY IS (SCALED BY   1.000)
        0.212020 HARTREE/MOLECULE    46532.997245 CM**-1/MOLECULE 
      133.044649 KCAL/MOL              556.658811 KJ/MOL

               Q               LN Q
 ELEC.     1.00000E+00       0.000000
 TRANS.    3.70351E+07      17.427377
 ROT.      2.04405E+05      12.227859
 VIB.      5.26331E+00       1.660760
 TOT.      3.98441E+13      31.315996

              E         H         G         CV        CP        S
           KJ/MOL    KJ/MOL    KJ/MOL   J/MOL-K   J/MOL-K   J/MOL-K
 ELEC.      0.000     0.000     0.000     0.000     0.000     0.000
 TRANS.     3.718     6.197   -43.201    12.472    20.786   165.684
 ROT.       3.718     3.718   -30.312    12.472    12.472   114.139
 VIB.     564.521   564.521   552.542    68.184    68.184    40.180
 TOTAL    571.958   574.437   479.028    93.127   101.441   320.003
 VIB. THERMAL CORRECTION E(T)-E(0) = H(T)-H(0) =      7862.674 J/MOL

              E         H         G         CV        CP        S
         KCAL/MOL  KCAL/MOL  KCAL/MOL CAL/MOL-K CAL/MOL-K CAL/MOL-K
 ELEC.      0.000     0.000     0.000     0.000     0.000     0.000
 TRANS.     0.889     1.481   -10.325     2.981     4.968    39.600
 ROT.       0.889     0.889    -7.245     2.981     2.981    27.280
 VIB.     134.924   134.924   132.061    16.296    16.296     9.603
 TOTAL    136.701   137.294   114.491    22.258    24.245    76.483
 VIB. THERMAL CORRECTION E(T)-E(0) = H(T)-H(0) =      1879.224 CAL/MOL
 ......END OF NORMAL COORDINATE ANALYSIS......
 STEP CPU TIME =     0.02 TOTAL CPU TIME =         74.3 (      1.2 MIN)
 TOTAL WALL CLOCK TIME=         74.7 SECONDS, CPU UTILIZATION IS    99.40%
               580000  WORDS OF DYNAMIC MEMORY USED
 EXECUTION OF GAMESS TERMINATED NORMALLY Sat Nov 13 21:34:38 2021
 DDI: 263640 bytes (0.3 MB / 0 MWords) used by master data server.

 ----------------------------------------
 CPU timing information for all processes
 ========================================
 0: 73.01 + 1.291 = 74.292
 ----------------------------------------
 ddikick.x: exited gracefully.
----- accounting info -----
Files used on the master node chemcompute-node-1.novalocal were:
-rw-r--r--. 1 chemcomp chemcomp     1554 Nov 13 21:33 /scratch/306195/342097.F05
-rw-rw-r--. 1 chemcomp chemcomp  8100720 Nov 13 21:34 /scratch/306195/342097.F08
-rw-rw-r--. 1 chemcomp chemcomp 85196800 Nov 13 21:34 /scratch/306195/342097.F10
-rw-rw-r--. 1 chemcomp chemcomp   564960 Nov 13 21:34 /scratch/306195/342097.F18
Sat Nov 13 21:34:41 UTC 2021
0.199u 0.125s 1:20.48 0.3%	0+0k 20960+224io 5pf+0w
Finishing Up...
Looking for IR data...
Looking for Raman data...
vibramans not found
Looking for thermodynamics data...
Looking for UV-Vis data...
306195
