----- GAMESS execution script 'rungms' -----
This job is running on host chemcompute-node-0.novalocal
under operating system Linux at Sat Nov 13 21:16:20 UTC 2021
SLURM has assigned the following compute nodes to this run:
chemcompute-node-0
Available scratch disk space (Kbyte units) at beginning of the job is
Filesystem     1K-blocks     Used Available Use% Mounted on
/dev/sda1       62903276 16896640  46006636  27% /
GAMESS temporary binary files will be written to /scratch/306183
GAMESS supplementary output files will be written to /data/slurm/342085
Copying input file 342085.inp to your run's scratch directory...
The generated host list is
chemcompute-node-0.novalocal

 Distributed Data Interface kickoff program.
 Initiating 1 compute processes on 1 nodes to run the following command:
 /data/gamess-2019R1-ddi/gamess.00.x 342085 

          ******************************************************
          *         GAMESS VERSION = 30 JUN 2019 (R1)          *
          *             FROM IOWA STATE UNIVERSITY             *
          * M.W.SCHMIDT, K.K.BALDRIDGE, J.A.BOATZ, S.T.ELBERT, *
          *   M.S.GORDON, J.H.JENSEN, S.KOSEKI, N.MATSUNAGA,   *
          *          K.A.NGUYEN, S.J.SU, T.L.WINDUS,           *
          *       TOGETHER WITH M.DUPUIS, J.A.MONTGOMERY       *
          *         J.COMPUT.CHEM.  14, 1347-1363(1993)        *
          **************** 64 BIT LINUX VERSION ****************

  SINCE 1993, STUDENTS AND POSTDOCS WORKING AT IOWA STATE UNIVERSITY
  AND ALSO IN THEIR VARIOUS JOBS AFTER LEAVING ISU HAVE MADE IMPORTANT
  CONTRIBUTIONS TO THE CODE:
     IVANA ADAMOVIC, CHRISTINE AIKENS, YURI ALEXEEV, POOJA ARORA,
     ANDREY ASADCHEV, ROB BELL, PRADIPTA BANDYOPADHYAY, JONATHAN BENTZ,
     COLLEEN BERTONI, BRETT BODE, KURT BRORSEN, CALEB CARLIN, GALINA CHABAN,
     WEI CHEN, CHEOL HO CHOI, PAUL DAY, ALBERT DEFUSCO, NUWAN DESILVA,
     TIM DUDLEY, DMITRI FEDOROV, ALEX FINDLATER, GRAHAM FLETCHER, 
     MARK FREITAG, KURT GLAESEMANN, ANASTASIA GUNINA,
     DAN KEMP, GRANT MERRILL, NORIYUKI MINEZAWA, JONATHAN MULLIN,
     TAKESHI NAGATA, SEAN NEDD, HEATHER NETZLOFF, BOSILJKA NJEGIC, RYAN OLSON,
     MIKE PAK, BUU PHAM,
     SPENCER PRUITT, LUKE ROSKOP, JIM SHOEMAKER, LYUDMILA SLIPCHENKO,
     TONY SMITH, SAROM SOK LEANG, JIE SONG, TETSUYA TAKETSUGU, SIMON WEBB,
     PENG XU, SOOHAENG YOO, FEDERICO ZAHARIEV

  ADDITIONAL CODE HAS BEEN PROVIDED BY COLLABORATORS IN OTHER GROUPS:
     IOWA STATE UNIVERSITY:
          JOE IVANIC, AARON WEST, LAIMUTIS BYTAUTAS, KLAUS RUEDENBERG
     UNIVERSITY OF TOKYO: KIMIHIKO HIRAO, TAKAHITO NAKAJIMA,
          TAKAO TSUNEDA, MUNEAKI KAMIYA, SUSUMU YANAGISAWA,
          KIYOSHI YAGI, MAHITO CHIBA, SEIKEN TOKURA, NAOAKI KAWAKAMI
     UNIVERSITY OF AARHUS: FRANK JENSEN
     UNIVERSITY OF IOWA: VISVALDAS KAIRYS, HUI LI
     NATIONAL INST. OF STANDARDS AND TECHNOLOGY: WALT STEVENS, DAVID GARMER
     UNIVERSITY OF PISA: BENEDETTA MENNUCCI, JACOPO TOMASI
     UNIVERSITY OF MEMPHIS: HENRY KURTZ, PRAKASHAN KORAMBATH
     UNIVERSITY OF ALBERTA: TOBY ZENG, MARIUSZ KLOBUKOWSKI
     UNIVERSITY OF NEW ENGLAND: MARK SPACKMAN
     MIE UNIVERSITY: HIROAKI UMEDA
     NAT. INST. OF ADVANCED INDUSTRIAL SCIENCE AND TECHNOLOGY: KAZUO KITAURA
     MICHIGAN STATE UNIVERSITY:
          KAROL KOWALSKI, MARTA WLOCH, JEFFREY GOUR, JESSE LUTZ,
          WEI LI, JUN SHEN, J. EMILIANO DEUSTUA, PIOTR PIECUCH
     UNIVERSITY OF MINNESOTA:
          YINAN SHU
     UNIVERSITY OF SILESIA: MONIKA MUSIAL, STANISLAW KUCHARSKI
     FACULTES UNIVERSITAIRES NOTRE-DAME DE LA PAIX:
          OLIVIER QUINET, BENOIT CHAMPAGNE
     UNIVERSITY OF CALIFORNIA - SANTA BARBARA: BERNARD KIRTMAN
     INSTITUTE FOR MOLECULAR SCIENCE:
          KAZUYA ISHIMURA, MICHIO KATOUDA, AND SHIGERU NAGASE
     UNIVERSITY OF NOTRE DAME: ANNA POMOGAEVA, DAN CHIPMAN
     KYUSHU UNIVERSITY:
          HARUYUKI NAKANO,
          FENG LONG GU, JACEK KORCHOWIEC, MARCIN MAKOWSKI, AND YURIKO AOKI,
          HIROTOSHI MORI AND EISAKU MIYOSHI
     PENNSYLVANIA STATE UNIVERSITY:
          TZVETELIN IORDANOV, CHET SWALINA, JONATHAN SKONE,
          SHARON HAMMES-SCHIFFER
     WASEDA UNIVERSITY:
          MASATO KOBAYASHI, TOMOKO AKAMA, TSUGUKI TOUMA,
          TAKESHI YOSHIKAWA, YASUHIRO IKABATA, JUNJI SEINO,
          YUYA NAKAJIMA, HIROMI NAKAI
     NANJING UNIVERSITY: SHUHUA LI
     UNIVERSITY OF NEBRASKA:
          PEIFENG SU, DEJUN SI, NANDUN THELLAMUREGE, YALI WANG, HUI LI
     UNIVERSITY OF ZURICH: ROBERTO PEVERATI, KIM BALDRIDGE
     N. COPERNICUS UNIVERSITY AND JACKSON STATE UNIVERSITY:
          MARIA BARYSZ
     UNIVERSITY OF COPENHAGEN: Jimmy Kromann, CASPER STEINMANN
     TOKYO INSTITUTE OF TECHNOLOGY: HIROYA NAKATA
     NAGOYA UNIVERSITY: YOSHIO NISHIMOTO, STEPHAN IRLE
     MOSCOW STATE UNIVERSITY: VLADIMIR MIRONOV
     A.N.NESMEYANOV INSTITUTE OF ORGANOELEMENT COMPOUNDS OF RUSSIAN ACADEMY OF SCIENCES:
          IGOR S. GERASIMOV

 EXECUTION OF GAMESS BEGUN Sat Nov 13 21:16:21 2021

            ECHO OF THE FIRST FEW INPUT CARDS -
 INPUT CARD>!File created by the GAMESS Input Deck Generator Plugin for Avogadro            
 INPUT CARD> $BASIS GBASIS=STO NGAUSS=3 $END                                                
 INPUT CARD> $CONTRL SCFTYP=RHF RUNTYP=OPTIMIZE NZVAR=1 mult=1  ICHARG=0 $END               
 INPUT CARD> $STATPT hssend=.t. OPTTOL=0.0005 NSTEP=50 $END                                 
 INPUT CARD> $STATPT HESS=calc ihrep=5 $END                                                 
 INPUT CARD> $FORCE nvib=2 $END                                                             
 INPUT CARD> $ZMAT DLC=.t. auto=.t. nonvdw(1)=17,4,19,5,17,19 $END                          
 INPUT CARD> $ZMAT IFZMAT(1)=1,17,4,1,19,5,1,17,19 fvalue(1)=2.08,2.01,1.98 $END}           
 INPUT CARD>                                                                                
 INPUT CARD> $DATA                                                                          
 INPUT CARD>Title                                                                           
 INPUT CARD>C1                                                                              
 INPUT CARD>C     6.0    -0.20261     1.03840     0.32390                                   
 INPUT CARD>C     6.0    -1.11893    -0.11433    -0.08658                                   
 INPUT CARD>C     6.0    -0.27275    -1.32156     0.27014                                   
 INPUT CARD>C     6.0     1.17610     0.50439    -0.06003                                   
 INPUT CARD>C     6.0     1.05811    -0.84137    -0.22787                                   
 INPUT CARD>C     6.0     2.02541    -1.67197    -1.02940                                   
 INPUT CARD>H     1.0    -0.26643     1.18563     1.42360                                   
 INPUT CARD>H     1.0    -0.47919     1.98235    -0.19136                                   
 INPUT CARD>H     1.0    -1.23130    -0.09554    -1.19642                                   
 INPUT CARD>H     1.0    -2.13076    -0.08784     0.37030                                   
 INPUT CARD>H     1.0    -0.62510    -2.27654    -0.17368                                   
 INPUT CARD>H     1.0    -0.24389    -1.41113     1.37939                                   
 INPUT CARD>H     1.0     1.92621     1.03152    -0.68045                                   
 INPUT CARD>H     1.0     1.66822    -2.72070    -1.09664                                   
 INPUT CARD>H     1.0     3.02977    -1.66481    -0.55721                                   
 INPUT CARD>H     1.0     2.10970    -1.25801    -2.05606                                   
 INPUT CARD>B     5.0     2.36443     0.78583     1.62275                                   
 INPUT CARD>H     1.0     3.43979     1.17622     1.31659                                   
 INPUT CARD>H     1.0     2.05018    -1.16761     1.48708                                   
 INPUT CARD>H     1.0     1.87310     1.33380     2.54921                                   
 INPUT CARD> $END                                                                           
    1000000 WORDS OF MEMORY AVAILABLE

     BASIS OPTIONS
     -------------
     GBASIS=STO          IGAUSS=       3      POLAR=NONE    
     NDFUNC=       0     NFFUNC=       0     DIFFSP=       F
     NPFUNC=       0      DIFFS=       F     BASNAM=        


     RUN TITLE
     ---------
 Title                                                                           

 THE POINT GROUP OF THE MOLECULE IS C1      
 THE ORDER OF THE PRINCIPAL AXIS IS     0

 ATOM      ATOMIC                      COORDINATES (BOHR)
           CHARGE         X                   Y                   Z
 C           6.0    -0.3828773824        1.9622914657        0.6120822474
 C           6.0    -2.1144710994       -0.2160523722       -0.1636124760
 C           6.0    -0.5154227632       -2.4973862763        0.5104905783
 C           6.0     2.2225067342        0.9531588909       -0.1134402510
 C           6.0     1.9995379649       -1.5899587543       -0.4306118608
 C           6.0     3.8274699128       -3.1595651597       -1.9452839318
 H           1.0    -0.5034796949        2.2405158228        2.6902139161
 H           1.0    -0.9055377961        3.7460983118       -0.3616179650
 H           1.0    -2.3268196087       -0.1805444209       -2.2609059662
 H           1.0    -4.0265525456       -0.1659935308        0.6997655333
 H           1.0    -1.1812677149       -4.3020368001       -0.3282076095
 H           1.0    -0.4608852711       -2.6666490331        2.6066691302
 H           1.0     3.6400090948        1.9492901509       -1.2858640483
 H           1.0     3.1524786872       -5.1413774948       -2.0723491072
 H           1.0     5.7254351058       -3.1460347216       -1.0529742176
 H           1.0     3.9867549163       -2.3772941898       -3.8853900143
 B           5.0     4.4681248171        1.4850033729        3.0665528466
 H           1.0     6.5002605553        2.2227335013        2.4879943382
 H           1.0     3.8742784255       -2.2064629605        2.8101737218
 H           1.0     3.5396457476        2.5205165224        4.8173083852

          INTERNUCLEAR DISTANCES (ANGS.)
          ------------------------------

                1 C          2 C          3 C          4 C          5 C     

   1 C       0.0000000    1.5286997 *  2.3616141 *  1.5275504 *  2.3296782 *
   2 C       1.5286997 *  0.0000000    1.5167973 *  2.3771163 *  2.2995767 *
   3 C       2.3616141 *  1.5167973 *  0.0000000    2.3542030 *  1.4999282 *
   4 C       1.5275504 *  2.3771163 *  2.3542030 *  0.0000000    1.3613089 *
   5 C       2.3296782 *  2.2995767 *  1.4999282 *  1.3613089 *  0.0000000  
   6 C       3.7605318    3.6334592    2.6632932 *  2.5293376 *  1.5059934 *
   7 H       1.1113459 *  2.1673246 *  2.7598028 *  2.1785635 *  2.9309535 *
   8 H       1.1104193 *  2.1946100 *  3.3423676    2.2229706 *  3.2152790  
   9 H       2.1576367 *  1.1156724 *  2.1383969 *  2.7288959 *  2.5953323 *
  10 H       2.2334574 *  1.1105138 *  2.2325542 *  3.3869224    3.3308417  
  11 H       3.3785960    2.2195960 *  1.1104564 *  3.3152390    2.2126557 *
  12 H       2.6675758 *  2.1439341 *  1.1132346 *  2.7852322 *  2.1454872 *
  13 H       2.3538566 *  3.3073451    3.3579803    1.1070014 *  2.1133252 *
  14 H       4.4326935    3.9473524    2.7555480 *  3.4231488    2.1584431 *
  15 H       4.3048786    4.4538963    3.4218368    2.8963268 *  2.1619346 *
  16 H       4.0354041    3.9510640    3.3303623    2.8216659 *  2.1498161 *
  17 B       2.8879919 *  3.9832015    3.6366695    2.0792030 *  2.7890941 *
  18 H       3.7777646    4.9412886    4.5953145    2.7332637 *  3.4825889  
  19 H       3.3607336    3.6917561    2.6269083 *  2.4399076 *  2.0079066 *
  20 H       3.0574234    4.2422533    4.1048470    2.8252192 *  3.6204622  

                6 C          7 H          8 H          9 H         10 H     

   1 C       3.7605318    1.1113459 *  1.1104193 *  2.1576367 *  2.2334574 *
   2 C       3.6334592    2.1673246 *  2.1946100 *  1.1156724 *  1.1105138 *
   3 C       2.6632932 *  2.7598028 *  3.3423676    2.1383969 *  2.2325542 *
   4 C       2.5293376 *  2.1785635 *  2.2229706 *  2.7288959 *  3.3869224  
   5 C       1.5059934 *  2.9309535 *  3.2152790    2.5953323 *  3.3308417  
   6 C       0.0000000    4.4085845    4.5088121    3.6220419    4.6628722  
   7 H       4.4085845    0.0000000    1.8133189 *  3.0719498    2.4913637 *
   8 H       4.5088121    1.8133189 *  0.0000000    2.4276412 *  2.7071816 *
   9 H       3.6220419    3.0719498    2.4276412 *  0.0000000    1.8065711 *
  10 H       4.6628722    2.4913637 *  2.7071816 *  1.8065711 *  0.0000000  
  11 H       2.8500816 *  3.8296956    4.2614254    2.4839961 *  2.7117031 *
  12 H       3.3196429    2.5972341 *  3.7467757    3.0562318    2.5158771 *
  13 H       2.7277216 *  3.0427695    2.6323442 *  3.3921024    4.3377469  
  14 H       1.1099282 *  5.0352651    5.2487695    3.9126254    4.8493416  
  15 H       1.1098440 *  4.7868101    5.0742904    4.5856205    5.4752332  
  16 H       1.1101795 *  4.8708730    4.5474598    3.6404118    5.0237458  
  17 B       3.6317510    2.6685062 *  3.5789426    4.6533651    4.7474902  
  18 H       3.9517498    3.7077765    4.2757646    5.4545096    5.7900207  
  19 H       2.5666445 *  3.3027943    4.3745996    4.3724841    4.4601973  
  20 H       4.6759278    2.4220943 *  3.6694154    5.0705085    4.7748931  

               11 H         12 H         13 H         14 H         15 H     

   1 C       3.3785960    2.6675758 *  2.3538566 *  4.4326935    4.3048786  
   2 C       2.2195960 *  2.1439341 *  3.3073451    3.9473524    4.4538963  
   3 C       1.1104564 *  1.1132346 *  3.3579803    2.7555480 *  3.4218368  
   4 C       3.3152390    2.7852322 *  1.1070014 *  3.4231488    2.8963268 *
   5 C       2.2126557 *  2.1454872 *  2.1133252 *  2.1584431 *  2.1619346 *
   6 C       2.8500816 *  3.3196429    2.7277216 *  1.1099282 *  1.1098440 *
   7 H       3.8296956    2.5972341 *  3.0427695    5.0352651    4.7868101  
   8 H       4.2614254    3.7467757    2.6323442 *  5.2487695    5.0742904  
   9 H       2.4839961 *  3.0562318    3.3921024    3.9126254    4.5856205  
  10 H       2.7117031 *  2.5158771 *  4.3377469    4.8493416    5.4752332  
  11 H       0.0000000    1.8183184 *  4.2082371    2.5116628 *  3.7255045  
  12 H       1.8183184 *  0.0000000    3.8624880    3.3914396    3.8120366  
  13 H       4.2082371    3.8624880    0.0000000    3.7840359    2.9160295 *
  14 H       2.5116628 *  3.3914396    3.7840359    0.0000000    1.8054658 *
  15 H       3.7255045    3.8120366    2.9160295 *  1.8054658 *  0.0000000  
  16 H       3.4727351    4.1671511    2.6772970 *  1.8041212 *  1.8051500 *
  17 B       4.6413964    3.4189458    2.3573567 *  4.4917194    3.3467207  
  18 H       5.5376698    4.5019798    2.5099863 *  4.9140742    3.4279286  
  19 H       3.3384087    2.3094710 *  3.0902634    3.0386824    2.3207598 *
  20 H       5.1662064    3.6585197    3.2442099    5.4564795    4.4698314  

               16 H         17 B         18 H         19 H         20 H     

   1 C       4.0354041    2.8879919 *  3.7777646    3.3607336    3.0574234  
   2 C       3.9510640    3.9832015    4.9412886    3.6917561    4.2422533  
   3 C       3.3303623    3.6366695    4.5953145    2.6269083 *  4.1048470  
   4 C       2.8216659 *  2.0792030 *  2.7332637 *  2.4399076 *  2.8252192 *
   5 C       2.1498161 *  2.7890941 *  3.4825889    2.0079066 *  3.6204622  
   6 C       1.1101795 *  3.6317510    3.9517498    2.5666445 *  4.6759278  
   7 H       4.8708730    2.6685062 *  3.7077765    3.3027943    2.4220943 *
   8 H       4.5474598    3.5789426    4.2757646    4.3745996    3.6694154  
   9 H       3.6404118    4.6533651    5.4545096    4.3724841    5.0705085  
  10 H       5.0237458    4.7474902    5.7900207    4.4601973    4.7748931  
  11 H       3.4727351    4.6413964    5.5376698    3.3384087    5.1662064  
  12 H       4.1671511    3.4189458    4.5019798    2.3094710 *  3.6585197  
  13 H       2.6772970 *  2.3573567 *  2.5099863 *  3.0902634    3.2442099  
  14 H       1.8041212 *  4.4917194    4.9140742    3.0386824    5.4564795  
  15 H       1.8051500 *  3.3467207    3.4279286    2.3207598 *  4.4698314  
  16 H       0.0000000    4.2161371    4.3668505    3.5447928    5.2897987  
  17 B       4.2161371    0.0000000    1.1842877 *  1.9832013 *  1.1832178 *
  18 H       4.3668505    1.1842877 *  0.0000000    2.7301322 *  1.9996752 *
  19 H       3.5447928    1.9832013 *  2.7301322 *  0.0000000    2.7233306 *
  20 H       5.2897987    1.1832178 *  1.9996752 *  2.7233306 *  0.0000000  

  * ... LESS THAN  3.000


     ATOMIC BASIS SET
     ----------------
 THE CONTRACTED PRIMITIVE FUNCTIONS HAVE BEEN UNNORMALIZED
 THE CONTRACTED BASIS FUNCTIONS ARE NOW NORMALIZED TO UNITY

  SHELL TYPE  PRIMITIVE        EXPONENT          CONTRACTION COEFFICIENT(S)

 C         

      1   S       1            71.6168373    0.154328967295
      1   S       2            13.0450963    0.535328142282
      1   S       3             3.5305122    0.444634542185

      2   L       4             2.9412494   -0.099967229187    0.155916274999
      2   L       5             0.6834831    0.399512826089    0.607683718598
      2   L       6             0.2222899    0.700115468880    0.391957393099

 C         

      3   S       7            71.6168373    0.154328967295
      3   S       8            13.0450963    0.535328142282
      3   S       9             3.5305122    0.444634542185

      4   L      10             2.9412494   -0.099967229187    0.155916274999
      4   L      11             0.6834831    0.399512826089    0.607683718598
      4   L      12             0.2222899    0.700115468880    0.391957393099

 C         

      5   S      13            71.6168373    0.154328967295
      5   S      14            13.0450963    0.535328142282
      5   S      15             3.5305122    0.444634542185

      6   L      16             2.9412494   -0.099967229187    0.155916274999
      6   L      17             0.6834831    0.399512826089    0.607683718598
      6   L      18             0.2222899    0.700115468880    0.391957393099

 C         

      7   S      19            71.6168373    0.154328967295
      7   S      20            13.0450963    0.535328142282
      7   S      21             3.5305122    0.444634542185

      8   L      22             2.9412494   -0.099967229187    0.155916274999
      8   L      23             0.6834831    0.399512826089    0.607683718598
      8   L      24             0.2222899    0.700115468880    0.391957393099

 C         

      9   S      25            71.6168373    0.154328967295
      9   S      26            13.0450963    0.535328142282
      9   S      27             3.5305122    0.444634542185

     10   L      28             2.9412494   -0.099967229187    0.155916274999
     10   L      29             0.6834831    0.399512826089    0.607683718598
     10   L      30             0.2222899    0.700115468880    0.391957393099

 C         

     11   S      31            71.6168373    0.154328967295
     11   S      32            13.0450963    0.535328142282
     11   S      33             3.5305122    0.444634542185

     12   L      34             2.9412494   -0.099967229187    0.155916274999
     12   L      35             0.6834831    0.399512826089    0.607683718598
     12   L      36             0.2222899    0.700115468880    0.391957393099

 H         

     13   S      37             3.4252509    0.154328967295
     13   S      38             0.6239137    0.535328142282
     13   S      39             0.1688554    0.444634542185

 H         

     14   S      40             3.4252509    0.154328967295
     14   S      41             0.6239137    0.535328142282
     14   S      42             0.1688554    0.444634542185

 H         

     15   S      43             3.4252509    0.154328967295
     15   S      44             0.6239137    0.535328142282
     15   S      45             0.1688554    0.444634542185

 H         

     16   S      46             3.4252509    0.154328967295
     16   S      47             0.6239137    0.535328142282
     16   S      48             0.1688554    0.444634542185

 H         

     17   S      49             3.4252509    0.154328967295
     17   S      50             0.6239137    0.535328142282
     17   S      51             0.1688554    0.444634542185

 H         

     18   S      52             3.4252509    0.154328967295
     18   S      53             0.6239137    0.535328142282
     18   S      54             0.1688554    0.444634542185

 H         

     19   S      55             3.4252509    0.154328967295
     19   S      56             0.6239137    0.535328142282
     19   S      57             0.1688554    0.444634542185

 H         

     20   S      58             3.4252509    0.154328967295
     20   S      59             0.6239137    0.535328142282
     20   S      60             0.1688554    0.444634542185

 H         

     21   S      61             3.4252509    0.154328967295
     21   S      62             0.6239137    0.535328142282
     21   S      63             0.1688554    0.444634542185

 H         

     22   S      64             3.4252509    0.154328967295
     22   S      65             0.6239137    0.535328142282
     22   S      66             0.1688554    0.444634542185

 B         

     23   S      67            48.7911132    0.154328967295
     23   S      68             8.8873622    0.535328142282
     23   S      69             2.4052670    0.444634542185

     24   L      70             2.2369561   -0.099967229187    0.155916274999
     24   L      71             0.5198205    0.399512826089    0.607683718598
     24   L      72             0.1690618    0.700115468880    0.391957393099

 H         

     25   S      73             3.4252509    0.154328967295
     25   S      74             0.6239137    0.535328142282
     25   S      75             0.1688554    0.444634542185

 H         

     26   S      76             3.4252509    0.154328967295
     26   S      77             0.6239137    0.535328142282
     26   S      78             0.1688554    0.444634542185

 H         

     27   S      79             3.4252509    0.154328967295
     27   S      80             0.6239137    0.535328142282
     27   S      81             0.1688554    0.444634542185

 TOTAL NUMBER OF BASIS SET SHELLS             =   27
 NUMBER OF CARTESIAN GAUSSIAN BASIS FUNCTIONS =   48
 NUMBER OF ELECTRONS                          =   54
 CHARGE OF MOLECULE                           =    0
 SPIN MULTIPLICITY                            =    1
 NUMBER OF OCCUPIED ORBITALS (ALPHA)          =   27
 NUMBER OF OCCUPIED ORBITALS (BETA )          =   27
 TOTAL NUMBER OF ATOMS                        =   20
 THE NUCLEAR REPULSION ENERGY IS      301.9030920816

     $CONTRL OPTIONS
     ---------------
 SCFTYP=RHF          RUNTYP=OPTIMIZE     EXETYP=RUN     
 MPLEVL=       0     CITYP =NONE         CCTYP =NONE         VBTYP =NONE    
 DFTTYP=NONE         TDDFT =NONE    
 MULT  =       1     ICHARG=       0     NZVAR =       1     COORD =UNIQUE  
 PP    =NONE         RELWFN=NONE         LOCAL =NONE         NUMGRD=       F
 ISPHER=      -1     NOSYM =       0     MAXIT =      30     UNITS =ANGS    
 PLTORB=       F     MOLPLT=       F     AIMPAC=       F     FRIEND=        
 NPRINT=       7     IREST =       0     GEOM  =INPUT   
 NORMF =       0     NORMP =       0     ITOL  =      20     ICUT  =       9
 INTTYP=BEST         GRDTYP=BEST         QMTTOL= 1.0E-06

     $SYSTEM OPTIONS
     ---------------
  REPLICATED MEMORY=     1000000 WORDS (ON EVERY NODE).
 DISTRIBUTED MEMDDI=           0 MILLION WORDS IN AGGREGATE,
 MEMDDI DISTRIBUTED OVER   1 PROCESSORS IS           0 WORDS/PROCESSOR.
 TOTAL MEMORY REQUESTED ON EACH PROCESSOR=     1000000 WORDS.
 TIMLIM=      525600.00 MINUTES, OR     365.0 DAYS.
 PARALL= F  BALTYP=  DLB     KDIAG=    0  COREFL= F
 MXSEQ2=     300 MXSEQ3=     150  mem10=         0

          ----------------
          PROPERTIES INPUT
          ----------------

     MOMENTS            FIELD           POTENTIAL          DENSITY
 IEMOM =       1   IEFLD =       0   IEPOT =       0   IEDEN =       0
 WHERE =COMASS     WHERE =NUCLEI     WHERE =NUCLEI     WHERE =NUCLEI  
 OUTPUT=BOTH       OUTPUT=BOTH       OUTPUT=BOTH       OUTPUT=BOTH    
 IEMINT=       0   IEFINT=       0                     IEDINT=       0
                                                       MORB  =       0
          EXTRAPOLATION IN EFFECT
          SOSCF IN EFFECT
 ORBITAL PRINTING OPTION: NPREO=     1    48     2     1

     -------------------------------
     INTEGRAL TRANSFORMATION OPTIONS
     -------------------------------
     NWORD  =            0
     CUTOFF = 1.0E-09     MPTRAN =       0
     DIRTRF =       F     AOINTS =DUP     

          ----------------------
          INTEGRAL INPUT OPTIONS
          ----------------------
 NOPK  =       1 NORDER=       0 SCHWRZ=       T


 -----------------------------------------------
  STATISTICS ON AUTOMATIC COORDINATE GENERATION 
 -----------------------------------------------
  NUMBER OF USER SPECIFIED BONDS                             3
  NUMBER OF BONDS                                           21
  NUMBER OF ANGLES                                          43
  NUMBER OF TORSIONS                                        69
  NUMBER OF EXTRA COORD.                                     0
  NUMBER OF EXTRA COORD. FOR CONSTRAINTS                     0
  NUMBER OF CONSTRAINED COORD.                               3

  TOTAL NUMBER OF PRIMITIVES                               133
 -----------------------------------------------

   --- ENCODED Z MATRIX ---
 COORD  TYPE   I   J   K   L   M   N
    1      1    4  17
    2      1    5  19
    3      1   17  19
    4      1    1   8
    5      1    1   4
    6      1    1   7
    7      1    1   2
    8      1    2   9
    9      1    2   3
   10      1    2  10
   11      1    3  12
   12      1    3  11
   13      1    3   5
   14      1    4  13
   15      1    4   5
   16      1    5   6
   17      1    6  15
   18      1    6  14
   19      1    6  16
   20      1   17  20
   21      1   17  18
   22      2    1   4  13
   23      2    1   4   5
   24      2    1   2   3
   25      2    1   2  10
   26      2    1   2   9
   27      2    1   4  17
   28      2    2   3   5
   29      2    2   1   8
   30      2    2   1   7
   31      2    2   3  12
   32      2    2   1   4
   33      2    2   3  11
   34      2    3   2   9
   35      2    3   5  19
   36      2    3   5   4
   37      2    3   2  10
   38      2    3   5   6
   39      2    4  17  19
   40      2    4   5  19
   41      2    4   5   6
   42      2    4   1   8
   43      2    4   1   7
   44      2    4  17  18
   45      2    4  17  20
   46      2    5   4  17
   47      2    5   4  13
   48      2    5   3  11
   49      2    5   3  12
   50      2    5  19  17
   51      2    5   6  16
   52      2    5   6  14
   53      2    5   6  15
   54      2    6   5  19
   55      2    7   1   8
   56      2    9   2  10
   57      2   11   3  12
   58      2   13   4  17
   59      2   14   6  16
   60      2   14   6  15
   61      2   15   6  16
   62      2   18  17  20
   63      2   18  17  19
   64      2   19  17  20
   65      3    1   4   5   3
   66      3    1   2   3   5
   67      3    1   2   3  11
   68      3    1   4  17  18
   69      3    1   4  17  20
   70      3    1   2   3  12
   71      3    1   4  17  19
   72      3    1   4   5   6
   73      3    1   4   5  19
   74      3    2   3   5   4
   75      3    2   1   4   5
   76      3    2   1   4  17
   77      3    2   1   4  13
   78      3    2   3   5  19
   79      3    2   3   5   6
   80      3    3   5   4  13
   81      3    3   5  19  17
   82      3    3   2   1   7
   83      3    3   2   1   4
   84      3    3   2   1   8
   85      3    3   5   6  16
   86      3    3   5   6  14
   87      3    3   5   6  15
   88      3    3   5   4  17
   89      3    4   5   3  11
   90      3    4   5   3  12
   91      3    4   5   6  16
   92      3    4   5   6  14
   93      3    4   5   6  15
   94      3    4   5  19  17
   95      3    4   1   2   9
   96      3    4  17  19   5
   97      3    4   1   2  10
   98      3    5   3   2  10
   99      3    5  19  17  18
  100      3    5  19  17  20
  101      3    5   3   2   9
  102      3    5   4  17  20
  103      3    5   4  17  18
  104      3    5   4   1   7
  105      3    5   4  17  19
  106      3    5   4   1   8
  107      3    6   5  19  17
  108      3    6   5   4  17
  109      3    6   5   4  13
  110      3    6   5   3  11
  111      3    6   5   3  12
  112      3    7   1   4  17
  113      3    7   1   4  13
  114      3    7   1   2   9
  115      3    7   1   2  10
  116      3    8   1   4  17
  117      3    8   1   2   9
  118      3    8   1   4  13
  119      3    8   1   2  10
  120      3    9   2   3  11
  121      3    9   2   3  12
  122      3   10   2   3  11
  123      3   10   2   3  12
  124      3   11   3   5  19
  125      3   12   3   5  19
  126      3   13   4  17  20
  127      3   13   4  17  18
  128      3   13   4   5  19
  129      3   13   4  17  19
  130      3   14   6   5  19
  131      3   15   6   5  19
  132      3   16   6   5  19
  133      3   17   4   5  19

          INDEP./SYM. INTERNAL COORDINATES
          --------------------------------
 CRD  1=   1.0000 (  1)
 CRD  2=   1.0000 (  2)
 CRD  3=   1.0000 (  3)
 CRD  4=   0.1548 (  5)  0.2020 ( 13)  0.1770 ( 15)  0.3723 ( 16)  0.1500 ( 27)
          -0.1108 ( 34)  0.1217 ( 43) -0.1675 ( 51)  0.1285 ( 52)  0.3451 ( 53)
          -0.1631 ( 60) -0.1053 ( 62) -0.1809 ( 65) -0.2305 ( 72) -0.1394 ( 73)
           0.1439 ( 74)  0.1366 ( 75)  0.2012 ( 79) -0.1051 ( 99)  0.1302 (100)
           0.1197 (106)  0.1119 (111)
 CRD  5=  -0.1196 ( 12) -0.2952 ( 13) -0.1781 ( 16)  0.1439 ( 26)  0.1636 ( 28)
          -0.1781 ( 35)  0.1064 ( 39)  0.1603 ( 40) -0.1544 ( 46) -0.1820 ( 49)
          -0.1113 ( 50) -0.1588 ( 52)  0.1422 ( 58) -0.1117 ( 64) -0.1043 ( 65)
          -0.1326 ( 70)  0.1024 ( 75)  0.2555 ( 76)  0.1820 ( 78) -0.1277 ( 83)
           0.1016 ( 87) -0.1420 ( 88) -0.1161 ( 97) -0.1581 ( 99)  0.1442 (112)
           0.1633 (116)  0.1734 (124) -0.1526 (130) -0.1319 (131) -0.1575 (132)
 CRD  6=   0.1046 (  4)  0.1411 (  9) -0.1127 ( 10) -0.2219 ( 13)  0.1506 ( 15)
           0.1263 ( 16) -0.1373 ( 22)  0.1975 ( 23)  0.2900 ( 24) -0.1533 ( 25)
          -0.1114 ( 26) -0.1760 ( 28)  0.1416 ( 29) -0.3349 ( 32)  0.1672 ( 33)
           0.1043 ( 40)  0.1907 ( 43) -0.1478 ( 44) -0.1465 ( 46)  0.1401 ( 49)
          -0.1388 ( 55)  0.1157 ( 56)  0.1540 ( 62) -0.1210 ( 66)  0.1120 ( 68)
           0.1012 ( 69)  0.1393 ( 71)  0.1286 ( 99) -0.1445 (101)
 CRD  7=  -0.1335 (  5)  0.2308 (  7)  0.1234 ( 12)  0.1020 ( 13)  0.1984 ( 15)
          -0.1296 ( 17)  0.1069 ( 20)  0.1196 ( 24) -0.1475 ( 28)  0.1703 ( 44)
           0.1069 ( 45)  0.1015 ( 48)  0.3665 ( 51)  0.1335 ( 52) -0.4651 ( 53)
          -0.2017 ( 59)  0.1286 ( 60) -0.1661 ( 62)  0.1001 ( 75) -0.1101 ( 88)
          -0.1090 ( 92) -0.2057 ( 99)  0.1037 (104)
 CRD  8=  -0.1239 (  4) -0.3957 (  5) -0.3284 (  7)  0.2377 ( 13) -0.1465 ( 22)
          -0.1174 ( 25) -0.1248 ( 28) -0.1147 ( 30)  0.1603 ( 32) -0.1996 ( 42)
          -0.1235 ( 44)  0.1417 ( 47)  0.1245 ( 48)  0.1793 ( 51) -0.2596 ( 52)
           0.1003 ( 60)  0.1321 ( 68)  0.1270 ( 69) -0.1165 ( 73)  0.1436 ( 81)
           0.1122 ( 83)  0.1072 ( 95)  0.1430 ( 97)  0.1250 (102)  0.1302 (103)
           0.1193 (107)
 CRD  9=  -0.1058 (  5) -0.2979 (  7) -0.2432 ( 13)  0.1774 ( 18) -0.2976 ( 51)
           0.5413 ( 52) -0.2849 ( 53) -0.1035 ( 59) -0.1060 ( 60)  0.2517 ( 61)
           0.1067 (107)
 CRD 10=  -0.1856 (  7) -0.6336 (  9) -0.1679 ( 10) -0.1581 ( 12) -0.1250 ( 15)
           0.1279 ( 24) -0.1401 ( 33) -0.1270 ( 34) -0.1441 ( 37)  0.1099 ( 43)
           0.1950 ( 51) -0.1468 ( 53)  0.1098 ( 56) -0.1103 ( 59)  0.1110 ( 95)
           0.1077 (111) -0.1019 (115)  0.1223 (117) -0.1088 (124)
 CRD 11=   0.2320 (  5) -0.4664 (  7)  0.2268 (  9) -0.1414 ( 15)  0.1028 ( 22)
          -0.1736 ( 25) -0.1287 ( 26) -0.1953 ( 29)  0.1169 ( 37)  0.1424 ( 42)
           0.1571 ( 44)  0.1780 ( 51) -0.1572 ( 52)  0.1013 ( 60)  0.1084 ( 98)
          -0.1484 ( 99)  0.1691 (106) -0.1259 (113) -0.1455 (114)  0.1047 (116)
           0.1474 (119) -0.1162 (121)  0.1128 (122) -0.1037 (125)
 CRD 12=  -0.1169 (  6) -0.1323 (  7) -0.1770 (  9) -0.1220 ( 10)  0.1749 ( 13)
           0.1330 ( 14)  0.1606 ( 15) -0.1005 ( 19)  0.1786 ( 24) -0.1594 ( 26)
          -0.1400 ( 31) -0.2257 ( 37)  0.1688 ( 42) -0.1341 ( 43)  0.1683 ( 44)
          -0.2477 ( 51)  0.1386 ( 53)  0.1198 ( 58)  0.1309 ( 59)  0.1030 ( 70)
          -0.1354 ( 74)  0.1253 ( 76) -0.1224 ( 79)  0.1135 ( 80)  0.1305 ( 82)
           0.1427 ( 84) -0.1026 ( 89) -0.1268 ( 95) -0.1443 ( 97) -0.2444 ( 99)
           0.1110 (102)  0.1017 (109)  0.1322 (112)  0.1638 (116)
 CRD 13=   0.2312 (  5)  0.1423 ( 12)  0.2024 ( 13)  0.2293 ( 14)  0.1708 ( 15)
          -0.1698 ( 16) -0.1726 ( 20)  0.1032 ( 21) -0.1586 ( 25)  0.1176 ( 26)
          -0.1681 ( 30) -0.1378 ( 34)  0.1458 ( 43) -0.2974 ( 45)  0.1483 ( 48)
          -0.1138 ( 49) -0.1369 ( 51)  0.1210 ( 61)  0.1371 ( 62) -0.1116 ( 67)
           0.1268 ( 77) -0.1168 ( 82)  0.1209 ( 98) -0.3227 (100)  0.1399 (101)
 CRD 14=   0.1030 (  4) -0.1060 (  8) -0.2076 ( 11)  0.1337 ( 12)  0.1961 ( 20)
          -0.1051 ( 21) -0.1341 ( 25) -0.1379 ( 34) -0.2481 ( 44)  0.2658 ( 45)
           0.1518 ( 48) -0.2148 ( 49)  0.1312 ( 66)  0.1112 ( 75) -0.1096 ( 78)
          -0.1505 ( 83) -0.1012 ( 90)  0.1942 ( 98)  0.2897 ( 99)  0.2847 (100)
           0.1854 (101) -0.1143 (125)  0.1031 (130)  0.1180 (131)  0.1155 (132)
 CRD 15=   0.2125 (  6) -0.2630 ( 11) -0.3706 ( 14)  0.1413 ( 21)  0.1245 ( 23)
          -0.1406 ( 25)  0.1622 ( 26) -0.1598 ( 34)  0.1447 ( 37)  0.2647 ( 44)
          -0.1508 ( 62) -0.1009 ( 70)  0.1246 ( 71) -0.1125 ( 76)  0.1039 ( 80)
          -0.1026 ( 85) -0.1219 ( 86) -0.1050 ( 87) -0.1131 ( 92)  0.1180 ( 95)
          -0.2815 ( 99)  0.1100 (109)
 CRD 16=   0.1053 (  5)  0.1894 (  6)  0.3581 (  8) -0.2682 ( 10)  0.2323 ( 14)
           0.1273 ( 20) -0.1670 ( 21)  0.1049 ( 22) -0.1277 ( 25)  0.1547 ( 26)
          -0.1095 ( 44)  0.1337 ( 45)  0.1379 ( 48) -0.1134 ( 66) -0.2286 ( 67)
          -0.1008 ( 68) -0.1890 ( 70)  0.1206 ( 82)  0.1221 ( 83)  0.1987 ( 84)
          -0.1012 ( 87) -0.1453 ( 91) -0.1469 ( 92) -0.1491 ( 93)  0.1020 ( 99)
           0.1265 (100) -0.1197 (104) -0.1236 (130) -0.1257 (131) -0.1220 (132)
 CRD 17=   0.1538 (  5) -0.3445 (  8)  0.2310 ( 10) -0.1695 ( 11)  0.3039 ( 14)
           0.1392 ( 20) -0.1799 ( 21)  0.1081 ( 29) -0.1379 ( 30) -0.1416 ( 31)
          -0.1294 ( 34) -0.1529 ( 42)  0.1724 ( 43)  0.1454 ( 45) -0.1338 ( 48)
           0.1348 ( 67)  0.1322 ( 70) -0.1885 ( 82) -0.1670 ( 84) -0.1170 ( 85)
          -0.1160 ( 86) -0.1139 ( 87) -0.1267 ( 91) -0.1257 ( 92) -0.1237 ( 93)
           0.1127 ( 95)  0.1050 (100)  0.1031 (129) -0.1087 (130) -0.1067 (131)
          -0.1097 (132)
 CRD 18=  -0.2489 (  5) -0.1306 (  6) -0.1283 (  8) -0.1409 ( 11)  0.1479 ( 12)
          -0.1484 ( 13) -0.1473 ( 18) -0.1830 ( 19) -0.1538 ( 20)  0.1293 ( 29)
          -0.1680 ( 30)  0.1517 ( 33) -0.1188 ( 42)  0.2039 ( 53) -0.1601 ( 60)
          -0.1317 ( 61) -0.1990 ( 68) -0.1228 ( 69) -0.1827 ( 71) -0.1100 ( 79)
          -0.1800 ( 81)  0.1105 ( 89) -0.1017 ( 94) -0.1222 (103) -0.1435 (104)
          -0.1058 (105) -0.1222 (106) -0.1365 (107) -0.1056 (112) -0.1110 (126)
          -0.1872 (127) -0.1709 (129)  0.1005 (133)
 CRD 19=   0.2015 (  4) -0.2797 (  6) -0.1133 ( 12) -0.2022 ( 14)  0.1203 ( 25)
           0.1346 ( 31) -0.2024 ( 33) -0.1209 ( 45)  0.1034 ( 48) -0.1056 ( 58)
           0.1336 ( 62)  0.1007 ( 77) -0.2295 ( 85) -0.2137 ( 86) -0.2230 ( 87)
          -0.1858 ( 89) -0.1451 ( 90) -0.1632 ( 91) -0.1474 ( 92) -0.1568 ( 93)
          -0.1068 ( 95) -0.1275 ( 97) -0.1475 (100) -0.1267 (109) -0.1281 (110)
          -0.1557 (124) -0.1151 (125) -0.1315 (128) -0.1506 (130) -0.1599 (131)
          -0.1664 (132)
 CRD 20=   0.1630 (  4) -0.1764 (  6) -0.2068 ( 14)  0.1340 ( 16)  0.4247 ( 17)
           0.4082 ( 18)  0.4263 ( 19)  0.1151 ( 29) -0.1079 ( 30) -0.1632 ( 51)
          -0.1862 ( 52) -0.1410 ( 53)  0.1800 ( 59)  0.1717 ( 60)  0.1507 ( 61)
          -0.1175 (112) -0.1182 (116)
 CRD 21=   0.3811 (  4)  0.1225 (  5) -0.1288 (  6) -0.1481 ( 10) -0.1926 ( 14)
          -0.1720 ( 16) -0.2288 ( 17) -0.2130 ( 18) -0.2106 ( 19)  0.1283 ( 20)
           0.1046 ( 21)  0.1672 ( 29) -0.1416 ( 30) -0.1218 ( 31) -0.1074 ( 62)
           0.1449 ( 68)  0.1075 ( 71)  0.1081 ( 81)  0.1147 ( 89)  0.1337 ( 90)
          -0.1405 (104) -0.1354 (106) -0.1895 (112) -0.1300 (113) -0.1844 (116)
          -0.1249 (118)  0.1021 (125)  0.1392 (127)  0.1018 (129)
 CRD 22=   0.3819 ( 11) -0.2378 ( 12)  0.2053 ( 17) -0.1889 ( 19) -0.1504 ( 21)
           0.1008 ( 29)  0.2001 ( 31) -0.1118 ( 33) -0.1003 ( 42)  0.1075 ( 43)
           0.1287 ( 44)  0.1268 ( 45) -0.2397 ( 62)  0.1140 ( 85)  0.1111 ( 87)
          -0.1168 ( 89) -0.1715 ( 90) -0.1504 ( 99)  0.1130 (100) -0.2051 (110)
          -0.2598 (111) -0.1040 (121) -0.1289 (124) -0.1836 (125)
 CRD 23=  -0.1067 (  4)  0.6815 ( 20)  0.5746 ( 21)  0.1928 ( 62) -0.1034 ( 63)
          -0.1094 ( 68) -0.1084 (127)
 CRD 24=  -0.3218 (  4) -0.3197 (  6)  0.1158 (  8)  0.1469 ( 12) -0.2075 ( 17)
           0.2189 ( 18)  0.1746 ( 20) -0.3366 ( 21) -0.2132 ( 63)  0.1789 ( 64)
          -0.1339 ( 68) -0.1281 ( 69)  0.1525 ( 91) -0.1245 ( 99) -0.1690 (102)
          -0.1748 (103) -0.1741 (126) -0.1799 (127)  0.1381 (132)
 CRD 25=  -0.1242 (  4) -0.1075 (  6)  0.1429 ( 11)  0.2004 ( 12)  0.3058 ( 17)
          -0.5636 ( 18)  0.2396 ( 19) -0.1276 ( 21)  0.1015 ( 52) -0.1808 ( 59)
          -0.1397 ( 60)  0.3238 ( 61) -0.1658 ( 85)  0.1693 ( 87) -0.1547 ( 91)
           0.1804 ( 93)  0.1785 (131) -0.1566 (132)
 CRD 26=  -0.4879 ( 17)  0.5530 ( 19)  0.2877 ( 59) -0.3113 ( 60)  0.1089 ( 85)
          -0.2015 ( 86)  0.1337 ( 87) -0.2166 ( 92)  0.1185 ( 93) -0.2176 (130)
           0.1176 (131)
 CRD 27=   0.1128 (  6) -0.3430 (  8) -0.2205 ( 10)  0.5481 ( 11)  0.4610 ( 12)
           0.1739 ( 18) -0.1031 ( 19)  0.1789 ( 57)  0.1372 (120) -0.1091 (123)
 CRD 28=  -0.1157 (  4) -0.2675 (  6)  0.3678 (  8)  0.5014 ( 10)  0.2797 ( 11)
           0.1074 ( 12) -0.1030 ( 14) -0.1104 ( 25) -0.1464 ( 34)  0.1945 ( 56)
          -0.1034 ( 80) -0.1309 ( 92)  0.1303 ( 95)  0.1451 (114)  0.2175 (117)
           0.1379 (122)
 CRD 29=  -0.3842 (  4) -0.2202 (  6)  0.2892 ( 12)  0.1035 ( 14) -0.1889 ( 20)
           0.2287 ( 21)  0.1074 ( 43) -0.1475 ( 55)  0.1660 ( 63) -0.1545 ( 64)
           0.1580 ( 68)  0.1455 ( 69) -0.1234 ( 82)  0.1311 (102)  0.1436 (103)
          -0.1903 (114) -0.1632 (115) -0.1114 (118) -0.1188 (121) -0.1415 (123)
           0.1337 (126)  0.1462 (127)
 CRD 30=  -0.2620 (  4) -0.4121 (  6) -0.2616 (  8) -0.3450 ( 10) -0.3564 ( 12)
           0.1319 ( 26)  0.1011 ( 42) -0.1545 ( 55) -0.1199 ( 56) -0.1088 ( 57)
           0.1229 ( 84) -0.1053 ( 92)  0.1057 (101)  0.1268 (113)  0.1093 (117)
           0.2011 (119)  0.1342 (120)  0.2048 (121)
 CRD 31=   0.2406 (  4) -0.2052 (  6)  0.1100 (  8)  0.1882 ( 11)  0.2532 ( 14)
           0.1009 ( 19) -0.1019 ( 22)  0.1128 ( 37)  0.1055 ( 57)  0.1023 ( 58)
           0.1186 ( 65)  0.1272 ( 67) -0.1049 ( 74) -0.1063 ( 77)  0.1961 ( 80)
          -0.1093 ( 85) -0.1223 ( 87) -0.2038 ( 89) -0.1025 ( 90)  0.1094 ( 92)
           0.1045 ( 98)  0.1049 (101) -0.1225 (104) -0.1166 (106) -0.1468 (113)
           0.1170 (114)  0.1179 (115) -0.1409 (118)  0.1962 (120)  0.1482 (121)
           0.1958 (122)  0.1478 (123) -0.1286 (124) -0.1327 (126)  0.1343 (128)
 CRD 32=   0.1106 ( 13) -0.1144 ( 14) -0.1839 ( 15)  0.1363 ( 18) -0.1504 ( 20)
          -0.1035 ( 21) -0.1526 ( 38)  0.2882 ( 62) -0.1859 ( 63) -0.2256 ( 64)
          -0.2205 ( 68)  0.2701 ( 69) -0.1160 ( 77)  0.2902 (102) -0.2003 (103)
           0.1105 (107) -0.1380 (113) -0.1321 (118)  0.3593 (126) -0.1313 (127)
 CRD 33=   0.1641 (  4) -0.1725 (  6) -0.3586 (  8)  0.2748 ( 10) -0.1399 ( 11)
           0.1008 ( 12)  0.1006 ( 42) -0.1811 ( 67) -0.1644 ( 70)  0.1619 ( 82)
           0.1008 ( 83)  0.1829 ( 84)  0.1347 ( 95)  0.1546 ( 97) -0.1401 ( 98)
          -0.1274 (101)  0.1959 (114)  0.2157 (115)  0.2169 (117)  0.2367 (119)
          -0.2086 (120) -0.1920 (121) -0.2213 (122) -0.2047 (123)
 CRD 34=  -0.1143 (  4)  0.1526 (  6) -0.1582 (  8)  0.1647 ( 10)  0.1567 ( 11)
          -0.1687 ( 12)  0.1076 ( 13) -0.2930 ( 14)  0.2200 ( 15) -0.2284 ( 17)
          -0.2034 ( 18) -0.1511 ( 19) -0.1052 ( 36) -0.1662 ( 51) -0.1730 ( 52)
          -0.1694 ( 53)  0.1468 ( 54)  0.1427 ( 59)  0.2121 ( 60)  0.1658 ( 61)
           0.1317 ( 73) -0.1247 ( 78)  0.1009 ( 99)  0.1650 (100) -0.1058 (103)
          -0.1037 (105) -0.1374 (124) -0.1607 (127)  0.1237 (128) -0.1586 (129)
 CRD 35=   0.1244 (  4) -0.1477 ( 12) -0.2164 ( 13)  0.3383 ( 14)  0.1945 ( 15)
          -0.1900 ( 18) -0.1190 ( 20)  0.1169 ( 30)  0.1201 ( 38) -0.1621 ( 40)
           0.1147 ( 46)  0.1287 ( 50) -0.1450 ( 52)  0.1475 ( 57) -0.1016 ( 58)
           0.1037 ( 60)  0.1099 ( 62) -0.1276 ( 63)  0.1601 ( 69) -0.1144 ( 70)
          -0.1159 ( 78)  0.1064 ( 81) -0.1050 (101)  0.1082 (102) -0.1331 (103)
           0.1388 (104)  0.1689 (113) -0.1184 (116) -0.1753 (121) -0.1334 (124)
          -0.1580 (127)  0.1612 (130)  0.1111 (131)  0.1783 (132)
 CRD 36=  -0.2035 (  4)  0.2282 (  6) -0.2046 (  8)  0.1180 ( 10)  0.1351 ( 11)
          -0.1381 ( 12)  0.1318 ( 15) -0.1876 ( 16)  0.1479 ( 19)  0.1341 ( 21)
           0.1288 ( 35)  0.1286 ( 45) -0.1074 ( 46)  0.1443 ( 51) -0.1316 ( 58)
          -0.1168 ( 59) -0.1371 ( 61)  0.1090 ( 65) -0.1171 ( 74)  0.1252 ( 77)
           0.1207 ( 88)  0.1119 ( 91)  0.1135 ( 92) -0.1031 ( 97)  0.1191 ( 98)
          -0.1472 ( 99)  0.1503 (100) -0.1346 (104) -0.1688 (106) -0.2332 (109)
           0.1091 (110) -0.2525 (128)
 CRD 37=  -0.1120 (  8)  0.1552 ( 10)  0.1034 ( 11) -0.1382 ( 12) -0.1021 ( 13)
          -0.1199 ( 14)  0.1241 ( 15) -0.3111 ( 16)  0.2073 ( 17)  0.1681 ( 19)
          -0.2187 ( 21) -0.1077 ( 40) -0.1287 ( 45)  0.1488 ( 51)  0.1510 ( 52)
           0.1884 ( 53)  0.1164 ( 58) -0.1167 ( 59) -0.1607 ( 60) -0.2228 ( 61)
           0.1022 ( 62)  0.1203 ( 80)  0.1289 ( 90) -0.1211 ( 95) -0.1759 (100)
           0.1046 (103)  0.1654 (109) -0.1744 (114)  0.1815 (128)
 CRD 38=   0.1637 (  4)  0.1482 (  8) -0.1121 ( 11) -0.3117 ( 16)  0.1112 ( 18)
           0.1259 ( 19) -0.1526 ( 33)  0.1079 ( 37)  0.1670 ( 43)  0.1378 ( 45)
           0.1708 ( 49) -0.1497 ( 56) -0.1300 ( 58) -0.1364 ( 59)  0.1140 ( 70)
           0.1297 ( 77) -0.1048 ( 80) -0.1180 ( 82)  0.1410 ( 86) -0.1599 ( 89)
           0.1838 ( 97) -0.1259 ( 98)  0.1967 (100) -0.2248 (110)  0.1832 (113)
          -0.1742 (114)  0.2137 (118)  0.1238 (119)  0.1116 (121) -0.1279 (124)
          -0.1197 (127)
 CRD 39=  -0.2447 (  5)  0.1045 (  9)  0.1919 ( 10) -0.2209 ( 13)  0.1631 ( 15)
          -0.3269 ( 20)  0.2916 ( 21)  0.1381 ( 26) -0.1241 ( 29) -0.1113 ( 30)
          -0.1076 ( 44) -0.1387 ( 47)  0.1094 ( 49) -0.1370 ( 56) -0.1548 ( 63)
           0.1537 ( 64)  0.1115 ( 71)  0.1367 (101) -0.1051 (104)  0.1315 (106)
          -0.1026 (112) -0.2114 (113)  0.1340 (116)  0.2205 (121) -0.1251 (122)
           0.1962 (129)
 CRD 40=   0.1242 ( 11) -0.1105 ( 12)  0.1262 ( 13)  0.1466 ( 14) -0.2179 ( 15)
           0.1816 ( 18) -0.2466 ( 20)  0.2622 ( 21) -0.1661 ( 25)  0.1378 ( 29)
           0.1376 ( 30)  0.1007 ( 41) -0.1009 ( 43)  0.1392 ( 48) -0.1044 ( 63)
           0.1641 ( 64) -0.1206 ( 67) -0.1045 ( 69)  0.1159 ( 90) -0.1085 ( 95)
           0.1748 ( 98)  0.1007 ( 99) -0.1803 (102) -0.1225 (103)  0.1755 (104)
           0.1182 (112)  0.1063 (113) -0.1212 (116) -0.1103 (117) -0.1331 (118)
          -0.1780 (120)  0.1310 (123)  0.1036 (125) -0.1399 (126) -0.1377 (132)
 CRD 41=   0.1143 (  4) -0.1878 (  5)  0.3398 (  7) -0.2546 (  9) -0.1501 ( 12)
           0.1965 ( 16)  0.1281 ( 22) -0.1420 ( 25) -0.1601 ( 26)  0.1823 ( 34)
           0.1632 ( 37)  0.1635 ( 43) -0.1211 ( 49)  0.1246 ( 57) -0.1000 ( 82)
           0.1807 ( 97)  0.1317 ( 98) -0.2483 (114)  0.1230 (116)  0.2018 (119)
          -0.1970 (121)  0.1479 (122)  0.1294 (125)  0.1114 (127)
 CRD 42=   0.1692 (  5) -0.1040 (  6)  0.1292 (  7)  0.1141 (  8) -0.2389 ( 10)
           0.1877 ( 13) -0.2156 ( 14)  0.2916 ( 15) -0.3014 ( 16)  0.1340 ( 19)
          -0.1486 ( 20)  0.1068 ( 21)  0.1031 ( 22) -0.1094 ( 26) -0.1176 ( 42)
          -0.1085 ( 44)  0.1588 ( 55)  0.1149 ( 57) -0.1003 ( 68) -0.1272 ( 69)
          -0.1128 ( 84)  0.1346 ( 95) -0.1559 (101) -0.1210 (113)  0.1914 (114)
           0.1363 (115)  0.1259 (116) -0.1876 (121)
 CRD 43=   0.1023 (  4) -0.1113 (  9)  0.2190 ( 13) -0.1255 ( 15) -0.1017 ( 16)
          -0.1863 ( 20)  0.1969 ( 21) -0.1645 ( 22)  0.1272 ( 25) -0.1139 ( 27)
          -0.1286 ( 29)  0.1196 ( 31)  0.1471 ( 33)  0.1375 ( 42)  0.1441 ( 43)
           0.1404 ( 45)  0.1536 ( 47) -0.1736 ( 48) -0.1095 ( 49) -0.1029 ( 55)
          -0.1088 ( 63)  0.1420 ( 67)  0.1165 ( 81) -0.1284 ( 82)  0.1355 ( 84)
          -0.1090 ( 86) -0.1172 ( 90)  0.1441 (110) -0.1748 (115)  0.1937 (117)
           0.1475 (118)  0.1250 (120) -0.1416 (123) -0.1326 (125) -0.1763 (126)
          -0.2276 (127) -0.1123 (129)
 CRD 44=   0.1146 (  6) -0.1028 (  8)  0.1040 ( 16) -0.3423 ( 17)  0.2743 ( 19)
          -0.1774 ( 51)  0.1643 ( 53) -0.2068 ( 59)  0.2337 ( 60)  0.1162 ( 84)
           0.3187 ( 86) -0.2240 ( 91)  0.1783 ( 92) -0.1826 ( 93)  0.1286 (109)
          -0.1489 (111)  0.1380 (122)  0.2516 (130) -0.1094 (131) -0.1508 (132)
 CRD 45=   0.1254 (  5)  0.1016 (  6) -0.1530 (  7) -0.1597 (  9)  0.1974 ( 12)
          -0.1524 ( 14) -0.2510 ( 18)  0.1284 ( 19) -0.1063 ( 20) -0.1439 ( 23)
           0.1218 ( 29)  0.1037 ( 31)  0.1354 ( 52) -0.1065 ( 53) -0.1440 ( 55)
          -0.1261 ( 57)  0.1216 ( 60) -0.1504 ( 61) -0.1248 ( 68) -0.1081 ( 69)
           0.1097 ( 70)  0.1684 ( 85) -0.1341 ( 87) -0.1133 ( 90)  0.1226 ( 91)
          -0.1800 ( 93)  0.1182 (104) -0.1528 (106) -0.1422 (111)  0.1892 (112)
          -0.2211 (118)  0.1068 (121)  0.1343 (123) -0.1549 (131)  0.1476 (132)
 CRD 46=   0.1241 (  4) -0.1736 (  7)  0.1500 ( 15) -0.1340 ( 17)  0.2523 ( 18)
          -0.1171 ( 19)  0.1301 ( 27)  0.3102 ( 38) -0.2703 ( 41) -0.1032 ( 54)
          -0.1093 ( 55) -0.1195 ( 59)  0.2168 ( 61) -0.1214 ( 77) -0.1788 ( 85)
           0.1398 ( 87) -0.2038 ( 91)  0.1147 ( 93)  0.1072 (104) -0.2929 (107)
           0.1535 (108)  0.1080 (109)  0.1313 (112) -0.1576 (118)  0.2016 (131)
          -0.1169 (132)
 CRD 47=   0.1559 (  4) -0.1932 (  6)  0.2307 ( 11)  0.1054 ( 13)  0.1122 ( 14)
          -0.1396 ( 16) -0.1122 ( 18)  0.1461 ( 19)  0.1021 ( 26) -0.1281 ( 29)
           0.1322 ( 33) -0.1051 ( 36)  0.1305 ( 41) -0.1364 ( 47)  0.1025 ( 52)
          -0.1492 ( 57)  0.1015 ( 60)  0.1051 ( 65) -0.1683 ( 67) -0.1159 ( 77)
          -0.1121 ( 84) -0.1807 ( 87)  0.1855 ( 88)  0.1617 ( 89) -0.1441 ( 93)
          -0.1202 ( 94) -0.1126 (103) -0.1248 (105)  0.1234 (106)  0.1570 (108)
           0.1706 (110) -0.1458 (115)  0.1007 (116) -0.1642 (119) -0.1259 (122)
           0.1894 (124) -0.1420 (131)  0.1187 (133)
 CRD 48=  -0.1285 (  5)  0.1001 (  8) -0.3477 (  9)  0.1155 ( 10)  0.1312 ( 12)
           0.1437 ( 15)  0.1166 ( 29)  0.1029 ( 33)  0.1030 ( 34) -0.1853 ( 36)
           0.1242 ( 41) -0.1386 ( 48)  0.1319 ( 53)  0.1444 ( 54) -0.1770 ( 56)
           0.1101 ( 73)  0.1087 ( 77) -0.1198 ( 78)  0.1558 ( 81)  0.1049 ( 82)
          -0.1555 ( 90) -0.1662 ( 95)  0.1170 ( 97) -0.1077 (108) -0.1285 (109)
           0.1290 (110) -0.1137 (111)  0.2376 (115) -0.1667 (117)  0.1165 (119)
          -0.2561 (125)
 CRD 49=  -0.2673 (  7)  0.1834 ( 10) -0.2128 ( 12)  0.2563 ( 13)  0.1790 ( 24)
           0.1207 ( 26) -0.1998 ( 28)  0.1069 ( 33) -0.1329 ( 37) -0.1185 ( 38)
          -0.1135 ( 49) -0.1849 ( 56)  0.2186 ( 57) -0.2254 ( 70)  0.1209 ( 90)
           0.2182 (101) -0.1243 (117)  0.3151 (120) -0.3257 (123)  0.1460 (125)
 CRD 50=  -0.3997 (  5)  0.1763 (  6)  0.1509 (  9) -0.1216 ( 10)  0.1211 ( 13)
           0.1117 ( 22)  0.1345 ( 25)  0.1704 ( 32) -0.1222 ( 36)  0.1268 ( 41)
          -0.1898 ( 47) -0.2101 ( 55)  0.1087 ( 67) -0.1142 ( 80) -0.1524 ( 82)
           0.1419 ( 84) -0.1015 ( 94) -0.1192 (102)  0.1017 (104) -0.1052 (105)
          -0.1083 (109) -0.1469 (115) -0.1116 (116)  0.2778 (117) -0.1724 (118)
           0.1474 (119)  0.1343 (127)  0.1052 (129)  0.1001 (133)
 CRD 51=  -0.1097 (  4)  0.1654 (  7) -0.1329 (  8) -0.1587 ( 11)  0.1960 ( 13)
           0.1449 ( 14) -0.1990 ( 16)  0.1081 ( 23) -0.1039 ( 25)  0.1568 ( 27)
           0.1590 ( 31)  0.1399 ( 34) -0.1297 ( 48) -0.1101 ( 53) -0.1350 ( 65)
          -0.1398 ( 66)  0.1290 ( 69) -0.1132 ( 73)  0.1768 ( 74)  0.1623 ( 78)
           0.1086 ( 79)  0.1548 ( 82) -0.1150 ( 94) -0.1043 ( 95) -0.1454 (103)
          -0.1208 (105)  0.1081 (106)  0.1674 (108) -0.1388 (112) -0.1527 (113)
           0.1308 (120)  0.2522 (122)  0.1319 (123)  0.1143 (133)
 CRD 52=   0.1379 (  4) -0.1799 (  8) -0.1150 ( 11) -0.1158 ( 13)  0.1856 ( 15)
           0.1174 ( 22) -0.1155 ( 23)  0.1036 ( 26)  0.1618 ( 30)  0.1112 ( 31)
          -0.1436 ( 37) -0.2381 ( 38)  0.2002 ( 41) -0.1062 ( 42) -0.1097 ( 48)
          -0.1555 ( 52)  0.1013 ( 54)  0.1050 ( 56) -0.1716 ( 66) -0.1442 ( 69)
          -0.1107 ( 70) -0.1169 ( 71) -0.1541 ( 75) -0.1431 ( 77)  0.1032 ( 79)
           0.2043 ( 83)  0.1096 ( 95)  0.2277 (107) -0.1238 (108)  0.1256 (112)
          -0.2050 (115) -0.2075 (119)  0.1209 (120)  0.2157 (122)  0.1021 (123)
 CRD 53=  -0.1157 (  5) -0.1124 (  6) -0.1117 (  8)  0.1221 (  9)  0.1932 ( 13)
          -0.1063 ( 15)  0.1853 ( 16)  0.1127 ( 23) -0.2350 ( 27) -0.1432 ( 35)
          -0.1087 ( 36)  0.3646 ( 38) -0.2498 ( 41)  0.1952 ( 52)  0.1389 ( 72)
           0.1977 ( 73) -0.1081 ( 75) -0.1441 ( 80)  0.1426 ( 81) -0.1696 ( 88)
           0.1134 ( 98) -0.2125 (107)  0.1669 (113)  0.1888 (118) -0.1304 (119)
           0.1094 (122)
 CRD 54=  -0.2488 (  5) -0.1170 ( 13) -0.1843 ( 15) -0.4229 ( 16)  0.1219 ( 24)
          -0.2338 ( 28)  0.1362 ( 31)  0.2032 ( 36) -0.2415 ( 41) -0.3270 ( 51)
           0.1191 ( 54)  0.1393 ( 59)  0.1331 ( 61) -0.1619 ( 72)  0.1625 ( 79)
          -0.1678 ( 81) -0.2016 (107) -0.1643 (108) -0.1290 (109)  0.1079 (110)
           0.1039 (111)

 THE DETERMINANT OF THE G MATRIX IS 10**(   -13)


                     --------------------
                     INTERNAL COORDINATES
                     --------------------

                 - - ATOMS - -         COORDINATE      COORDINATE
 NO.   TYPE    I  J  K  L  M  N        (BOHR,RAD)       (ANG,DEG)
 ----------------------------------------------------------------
   1 STRETCH   4 17                     3.9291240       2.0792030
   2 STRETCH   5 19                     3.7943933       2.0079066
   3 STRETCH  17 19                     3.7477070       1.9832013
   4 STRETCH   1  8                     2.0983882       1.1104193
   5 STRETCH   1  4                     2.8866517       1.5275504
   6 STRETCH   1  7                     2.1001393       1.1113459
   7 STRETCH   1  2                     2.8888235       1.5286997
   8 STRETCH   2  9                     2.1083151       1.1156724
   9 STRETCH   2  3                     2.8663313       1.5167973
  10 STRETCH   2 10                     2.0985669       1.1105138
  11 STRETCH   3 12                     2.1037083       1.1132346
  12 STRETCH   3 11                     2.0984584       1.1104564
  13 STRETCH   3  5                     2.8344534       1.4999282
  14 STRETCH   4 13                     2.0919293       1.1070014
  15 STRETCH   4  5                     2.5725008       1.3613089
  16 STRETCH   5  6                     2.8459148       1.5059934
  17 STRETCH   6 15                     2.0973010       1.1098440
  18 STRETCH   6 14                     2.0974601       1.1099282
  19 STRETCH   6 16                     2.0979350       1.1101795
  20 STRETCH  17 20                     2.2359575       1.1832178
  21 STRETCH  17 18                     2.2379793       1.1842877
  22 BEND      1  4 13                  2.1968830     125.8721240
  23 BEND      1  4  5                  1.8737622     107.3586676
  24 BEND      1  2  3                  1.7748253     101.6899993
  25 BEND      1  2 10                  2.0016952     114.6886848
  26 BEND      1  2  9                  1.8910262     108.3478197
  27 BEND      1  4 17                  1.8391106     105.3732726
  28 BEND      2  3  5                  1.7336172      99.3289516
  29 BEND      2  1  8                  1.9467037     111.5379088
  30 BEND      2  1  7                  1.9083473     109.3402469
  31 BEND      2  3 12                  1.8889765     108.2303816
  32 BEND      2  1  4                  1.7822792     102.1170774
  33 BEND      2  3 11                  1.9970494     114.4224998
  34 BEND      3  2  9                  1.8792058     107.6705615
  35 BEND      3  5 19                  1.6737724      95.9000944
  36 BEND      3  5  4                  1.9309879     110.6374550
  37 BEND      3  2 10                  2.0158738     115.5010629
  38 BEND      3  5  6                  2.1773573     124.7533838
  39 BEND      4 17 19                  1.2877757      73.7841130
  40 BEND      4  5 19                  1.5832900      90.7158371
  41 BEND      4  5  6                  2.1593748     123.7230637
  42 BEND      4  1  8                  1.9881678     113.9136248
  43 BEND      4  1  7                  1.9250031     110.2945528
  44 BEND      4 17 18                  1.9330202     110.7538998
  45 BEND      4 17 20                  2.0477471     117.3272636
  46 BEND      5  4 17                  1.8578590     106.4474770
  47 BEND      5  4 13                  2.0492087     117.4110073
  48 BEND      5  3 11                  2.0088242     115.0971471
  49 BEND      5  3 12                  1.9109057     109.4868321
  50 BEND      5 19 17                  1.5474735      88.6637006
  51 BEND      5  6 16                  1.9127210     109.5908394
  52 BEND      5  6 14                  1.9248059     110.2832539
  53 BEND      5  6 15                  1.9297088     110.5641715
  54 BEND      6  5 19                  1.6184283      92.7291118
  55 BEND      7  1  8                  1.9094723     109.4047051
  56 BEND      9  2 10                  1.8934574     108.4871157
  57 BEND     11  3 12                  1.9148169     109.7109263
  58 BEND     13  4 17                  1.5726631      90.1069575
  59 BEND     14  6 16                  1.8972942     108.7069529
  60 BEND     14  6 15                  1.8997967     108.8503324
  61 BEND     15  6 16                  1.8989913     108.8041846
  62 BEND     18 17 20                  2.0117614     115.2654388
  63 BEND     18 17 19                  2.0385594     116.8008505
  64 BEND     19 17 20                  2.0307813     116.3551983
  65 TORSION   1  4  5  3              -0.1877218     -10.7556652
  66 TORSION   1  2  3  5              -0.7348323     -42.1027875
  67 TORSION   1  2  3 11              -2.8840190    -165.2421166
  68 TORSION   1  4 17 18              -2.4173572    -138.5043631
  69 TORSION   1  4 17 20              -0.0576553      -3.3034031
  70 TORSION   1  2  3 12               1.2584556      72.1041946
  71 TORSION   1  4 17 19               1.8922825     108.4198011
  72 TORSION   1  4  5  6               2.7734233     158.9054506
  73 TORSION   1  4  5 19              -1.8733272    -107.3337443
  74 TORSION   2  3  5  4               0.5914250      33.8861568
  75 TORSION   2  1  4  5              -0.2940639     -16.8486219
  76 TORSION   2  1  4 17              -2.2694041    -130.0272757
  77 TORSION   2  1  4 13               2.2403901     128.3648975
  78 TORSION   2  3  5 19               2.2145871     126.8864948
  79 TORSION   2  3  5  6              -2.3674731    -135.6462183
  80 TORSION   3  5  4 13              -2.7815539    -159.3713012
  81 TORSION   3  5 19 17              -2.0242309    -115.9798879
  82 TORSION   3  2  1  7              -1.3941866     -79.8810092
  83 TORSION   3  2  1  4               0.6448540      36.9474105
  84 TORSION   3  2  1  8               2.7747843     158.9834268
  85 TORSION   3  5  6 16               1.9725054     113.0162327
  86 TORSION   3  5  6 14              -0.1155226      -6.6189596
  87 TORSION   3  5  6 15              -2.2174995    -127.0533616
  88 TORSION   3  5  4 17               1.7749137     101.6950656
  89 TORSION   4  5  3 11               2.7322167     156.5444862
  90 TORSION   4  5  3 12              -1.3848141     -79.3440044
  91 TORSION   4  5  6 16              -0.9632174     -55.1882896
  92 TORSION   4  5  6 14              -3.0512454    -174.8234819
  93 TORSION   4  5  6 15               1.1299631      64.7421161
  94 TORSION   4  5 19 17              -0.0898258      -5.1466414
  95 TORSION   4  1  2  9              -1.3322224     -76.3307210
  96 TORSION   4 17 19  5               0.0611991       3.5064502
  97 TORSION   4  1  2 10               2.8331463     162.3273268
  98 TORSION   5  3  2 10              -2.9136797    -166.9415505
  99 TORSION   5 19 17 18              -1.7793949    -101.9518173
 100 TORSION   5 19 17 20               2.0320467     116.4277009
 101 TORSION   5  3  2  9               1.2510689      71.6809667
 102 TORSION   5  4 17 20              -2.0441116    -117.1189648
 103 TORSION   5  4 17 18               1.8793719     107.6800752
 104 TORSION   5  4  1  7               1.7329292      99.2895321
 105 TORSION   5  4 17 19              -0.0941738      -5.3957606
 106 TORSION   5  4  1  8              -2.3953331    -137.2424766
 107 TORSION   6  5 19 17               2.0710759     118.6639096
 108 TORSION   6  5  4 17              -1.5471265     -88.6438186
 109 TORSION   6  5  4 13               0.1795911      10.2898146
 110 TORSION   6  5  3 11              -0.2266814     -12.9878889
 111 TORSION   6  5  3 12               1.9394731     111.1236205
 112 TORSION   7  1  4 17              -0.2424109     -13.8891217
 113 TORSION   7  1  4 13              -2.0158020    -115.4969485
 114 TORSION   7  1  2  9               2.9119223     166.8408593
 115 TORSION   7  1  2 10               0.7941057      45.4989071
 116 TORSION   8  1  4 17               1.9125121     109.5788697
 117 TORSION   8  1  2  9               0.7977079      45.7052953
 118 TORSION   8  1  4 13               0.1391209       7.9710429
 119 TORSION   8  1  2 10              -1.3201087     -75.6366570
 120 TORSION   9  2  3 11              -0.8981179     -51.4583623
 121 TORSION   9  2  3 12              -3.0388286    -174.1120512
 122 TORSION  10  2  3 11               1.2203189      69.9191204
 123 TORSION  10  2  3 12              -0.9203918     -52.7345684
 124 TORSION  11  3  5 19              -1.9278065    -110.4551758
 125 TORSION  12  3  5 19               0.2383480      13.6563336
 126 TORSION  13  4 17 20               2.1669791     124.1587558
 127 TORSION  13  4 17 18              -0.1927228     -11.0422043
 128 TORSION  13  4  5 19               1.8160259     104.0506197
 129 TORSION  13  4 17 19              -2.1662685    -124.1180401
 130 TORSION  14  6  5 19               1.6142701      92.4908624
 131 TORSION  15  6  5 19              -0.4877068     -27.9435397
 132 TORSION  16  6  5 19              -2.5808872    -147.8739454
 133 TORSION  17  4  5 19               0.0893083       5.1169865

     ------------------------------------------
     THE POINT GROUP IS C1 , NAXIS= 0, ORDER= 1
     ------------------------------------------

     DIMENSIONS OF THE SYMMETRY SUBSPACES ARE
 A   =   48

 ..... DONE SETTING UP THE RUN .....
 STEP CPU TIME =     0.05 TOTAL CPU TIME =          0.0 (      0.0 MIN)
 TOTAL WALL CLOCK TIME=          0.1 SECONDS, CPU UTILIZATION IS    83.33%


          -----------------------------
          STATIONARY POINT LOCATION RUN
          -----------------------------


           ** GEOMETRY CONSTRAINTS ARE BEING APPLIED. **

          TRANSFORMING DISPLACEMENT FROM INTERNALS TO CARTESIANS
          THE ROOT MEAN SQUARE ERROR IN ITERATION   1 IS   0.00000206
          THE ROOT MEAN SQUARE ERROR IN ITERATION   2 IS   0.00000000
 WARNING! THE RADIUS IN CARTESIANS IS    0.00797
 OBTAINING INITIAL HESSIAN, HESS=CALC    

     ---------------------------------
     HESSIAN MATRIX CONTROL PARAMETERS
     ---------------------------------
     METHOD=ANALYTIC   NVIB  =       2   VIBSIZ= 0.01000
     RDHESS=       F   PURIFY=       F   PRTIFC=       F
     VIBANL=       F   DECOMP=       F   PROJCT=       F
     SCLFAC= 1.00000   PRTSCN=       F   NPRT  =       0
     PULCOR=       F   NPUN  =       0   REDOVB=       T
     HSSTYP=GENERAL 
 Old integral subroutine is used

     ------------------------------
     CPHF RESPONSE SOLUTION OPTIONS
     ------------------------------
     POLAR  =       F     NWORD  =       0
     CPHF   =AO      

          ********************
          1 ELECTRON INTEGRALS
          ********************
 ...... END OF ONE-ELECTRON INTEGRALS ......
 STEP CPU TIME =     0.03 TOTAL CPU TIME =          0.1 (      0.0 MIN)
 TOTAL WALL CLOCK TIME=          0.1 SECONDS, CPU UTILIZATION IS    88.89%

          -------------
          GUESS OPTIONS
          -------------
          GUESS =HUCKEL            NORB  =       0          NORDER=       0
          MIX   =       F          PRTMO =       F          PUNMO =       F
          TOLZ  = 1.0E-08          TOLE  = 1.0E-05
          SYMDEN=       F          PURIFY=       F

 INITIAL GUESS ORBITALS GENERATED BY HUCKEL   ROUTINE.
 HUCKEL GUESS REQUIRES     39252 WORDS.

 SYMMETRIES FOR INITIAL GUESS ORBITALS FOLLOW.   BOTH SET(S).
    27 ORBITALS ARE OCCUPIED (    7 CORE ORBITALS).
     8=A        9=A       10=A       11=A       12=A       13=A       14=A   
    15=A       16=A       17=A       18=A       19=A       20=A       21=A   
    22=A       23=A       24=A       25=A       26=A       27=A       28=A   
    29=A       30=A       31=A       32=A       33=A       34=A       35=A   
    36=A       37=A   
 ...... END OF INITIAL ORBITAL SELECTION ......
 STEP CPU TIME =     0.02 TOTAL CPU TIME =          0.1 (      0.0 MIN)
 TOTAL WALL CLOCK TIME=          0.1 SECONDS, CPU UTILIZATION IS    90.91%

                    ----------------------
                    AO INTEGRAL TECHNOLOGY
                    ----------------------
     S,P,L SHELL ROTATED AXIS INTEGRALS, REPROGRAMMED BY
        KAZUYA ISHIMURA (IMS) AND JOSE SIERRA (SYNSTAR).
     S,P,D,L SHELL ROTATED AXIS INTEGRALS PROGRAMMED BY
        KAZUYA ISHIMURA (INSTITUTE FOR MOLECULAR SCIENCE).
     S,P,D,F,G SHELL TO TOTAL QUARTET ANGULAR MOMENTUM SUM 5,
        ERIC PROGRAM BY GRAHAM FLETCHER (ELORET AND NASA ADVANCED
        SUPERCOMPUTING DIVISION, AMES RESEARCH CENTER).
     S,P,D,F,G,L SHELL GENERAL RYS QUADRATURE PROGRAMMED BY
        MICHEL DUPUIS (PACIFIC NORTHWEST NATIONAL LABORATORY).

          --------------------
          2 ELECTRON INTEGRALS
          --------------------

 THE -PK- OPTION IS OFF, THE INTEGRALS ARE NOT IN SUPERMATRIX FORM.
 STORING   15000 INTEGRALS/RECORD ON DISK, USING 12 BYTES/INTEGRAL.
 TWO ELECTRON INTEGRAL EVALUATION REQUIRES   89734 WORDS OF MEMORY.
 SCHWARZ INEQUALITY OVERHEAD:      1167 INTEGRALS, T=        0.00
 II,JST,KST,LST =  1  1  1  1 NREC =         1 INTLOC =    1
 II,JST,KST,LST =  2  1  1  1 NREC =         1 INTLOC =    2
 II,JST,KST,LST =  3  1  1  1 NREC =         1 INTLOC =   34
 II,JST,KST,LST =  4  1  1  1 NREC =         1 INTLOC =  142
 II,JST,KST,LST =  5  1  1  1 NREC =         1 INTLOC = 1362
 II,JST,KST,LST =  6  1  1  1 NREC =         1 INTLOC = 1940
 II,JST,KST,LST =  7  1  1  1 NREC =         1 INTLOC = 6810
 II,JST,KST,LST =  8  1  1  1 NREC =         1 INTLOC = 8496
 II,JST,KST,LST =  9  1  1  1 NREC =         2 INTLOC = 5928
 II,JST,KST,LST = 10  1  1  1 NREC =         2 INTLOC = 9901
 II,JST,KST,LST = 11  1  1  1 NREC =         4 INTLOC = 5392
 II,JST,KST,LST = 12  1  1  1 NREC =         4 INTLOC =12307
 II,JST,KST,LST = 13  1  1  1 NREC =         7 INTLOC =12084
 II,JST,KST,LST = 14  1  1  1 NREC =         8 INTLOC =11451
 II,JST,KST,LST = 15  1  1  1 NREC =         9 INTLOC =12179
 II,JST,KST,LST = 16  1  1  1 NREC =        10 INTLOC =14732
 II,JST,KST,LST = 17  1  1  1 NREC =        12 INTLOC = 3594
 II,JST,KST,LST = 18  1  1  1 NREC =        13 INTLOC = 9527
 II,JST,KST,LST = 19  1  1  1 NREC =        15 INTLOC = 2415
 II,JST,KST,LST = 20  1  1  1 NREC =        16 INTLOC =12217
 II,JST,KST,LST = 21  1  1  1 NREC =        18 INTLOC = 8755
 II,JST,KST,LST = 22  1  1  1 NREC =        20 INTLOC = 7284
 II,JST,KST,LST = 23  1  1  1 NREC =        22 INTLOC = 8448
 II,JST,KST,LST = 24  1  1  1 NREC =        24 INTLOC = 3883
 II,JST,KST,LST = 25  1  1  1 NREC =        34 INTLOC =13407
 II,JST,KST,LST = 26  1  1  1 NREC =        37 INTLOC =13622
 II,JST,KST,LST = 27  1  1  1 NREC =        41 INTLOC = 4277
 SCHWARZ INEQUALITY TEST SKIPPED        8496 INTEGRAL BLOCKS.
 TOTAL NUMBER OF NONZERO TWO-ELECTRON INTEGRALS =              656527
         44 INTEGRAL RECORDS WERE STORED ON DISK FILE  8.
  ...... END OF TWO-ELECTRON INTEGRALS .....
 STEP CPU TIME =     0.23 TOTAL CPU TIME =          0.3 (      0.0 MIN)
 TOTAL WALL CLOCK TIME=          0.3 SECONDS, CPU UTILIZATION IS    97.06%

          --------------------------
                 RHF SCF CALCULATION
          --------------------------

     NUCLEAR ENERGY =       301.9091406636
     MAXIT =   30     NPUNCH=    2
     EXTRAP=T  DAMP=F  SHIFT=F  RSTRCT=F  DIIS=F  DEM=F  SOSCF=T
     DENSITY MATRIX CONV=  1.00E-05
     SOSCF WILL OPTIMIZE     567 ORBITAL ROTATIONS, SOGTOL=   0.250
     MEMORY REQUIRED FOR RHF ITERS=     49068 WORDS.

 ITER EX DEM     TOTAL ENERGY        E CHANGE  DENSITY CHANGE     ORB. GRAD
   1  0  0     -255.6934398940  -255.6934398940   0.309662490   0.000000000
          ---------------START SECOND ORDER SCF---------------
   2  1  0     -256.0590427213    -0.3656028273   0.123492706   0.035185647
   3  2  0     -256.0813750247    -0.0223323033   0.047359834   0.019670133
   4  3  0     -256.0860794289    -0.0047044043   0.010723981   0.004181240
   5  4  0     -256.0864363723    -0.0003569434   0.015137951   0.002333065
   6  5  0     -256.0865845576    -0.0001481853   0.014265783   0.001272850
   7  6  0     -256.0866512292    -0.0000666716   0.003371584   0.000382655
   8  7  0     -256.0866602897    -0.0000090604   0.000997723   0.000141859
   9  8  0     -256.0866615779    -0.0000012882   0.000305680   0.000064878
  10  9  0     -256.0866617033    -0.0000001254   0.000084120   0.000018316
  11 10  0     -256.0866617203    -0.0000000170   0.000026876   0.000008381
  12 11  0     -256.0866617218    -0.0000000015   0.000010079   0.000002621
  13 12  0     -256.0866617219    -0.0000000002   0.000001701   0.000000501
  14 13  0     -256.0866617220    -0.0000000000   0.000000600   0.000000151

          -----------------
          DENSITY CONVERGED
          -----------------
     TIME TO FORM FOCK OPERATORS=       0.1 SECONDS (       0.0 SEC/ITER)
     TIME TO SOLVE SCF EQUATIONS=       0.1 SECONDS (       0.0 SEC/ITER)

 FINAL RHF ENERGY IS     -256.0866617220 AFTER  14 ITERATIONS

          ------------
          EIGENVECTORS
          ------------

                      1          2          3          4          5
                  -11.1401   -11.0815   -11.0772   -11.0595   -11.0497
                     A          A          A          A          A   
    1  C  1  S   -0.000389  -0.000142  -0.002053  -0.012534   0.991894
    2  C  1  S    0.000153  -0.000061  -0.000072  -0.006208   0.037013
    3  C  1  X    0.000011  -0.000024  -0.000188   0.002646   0.000058
    4  C  1  Y    0.000161   0.000053   0.000262   0.003117  -0.000627
    5  C  1  Z   -0.000018  -0.000011  -0.000211   0.001157  -0.000045
    6  C  2  S   -0.000770   0.000076  -0.005748   0.991854   0.013488
    7  C  2  S   -0.000027   0.000012  -0.006072   0.037202  -0.005287
    8  C  2  X   -0.000526   0.000004  -0.002260   0.000832  -0.002449
    9  C  2  Y   -0.000053  -0.000012   0.003527  -0.000142  -0.003307
   10  C  2  Z    0.000239  -0.000011  -0.001022  -0.000238  -0.001166
   11  C  3  S   -0.001036  -0.001786   0.991890   0.006667   0.002261
   12  C  3  S   -0.005761   0.000049   0.037578  -0.005620   0.000007
   13  C  3  X   -0.003701   0.000053   0.000566   0.002584  -0.000153
   14  C  3  Y   -0.001220  -0.000113   0.001038  -0.003317  -0.000319
   15  C  3  Z    0.001422  -0.000072  -0.000165   0.001018  -0.000158
   16  C  4  S    0.002252  -0.000146  -0.000384  -0.000617  -0.002183
   17  C  4  S   -0.007278   0.000178   0.000218   0.000201  -0.005875
   18  C  4  X    0.000312   0.000082  -0.000046   0.000038   0.003850
   19  C  4  Y    0.004413   0.000015   0.000011   0.000079  -0.001504
   20  C  4  Z    0.000683  -0.000104  -0.000089   0.000128  -0.001062
   21  C  5  S    0.992336   0.002434   0.001971   0.000934   0.000483
   22  C  5  S    0.035076  -0.005962  -0.006168  -0.000108   0.000270
   23  C  5  X   -0.000436  -0.002868   0.003922   0.000285   0.000030
   24  C  5  Y    0.001625   0.002453   0.001578  -0.000269   0.000037
   25  C  5  Z    0.000210   0.002409  -0.001488   0.000126  -0.000057
   26  C  6  S   -0.001484   0.991980   0.001790  -0.000071   0.000158
   27  C  6  S   -0.005564   0.037385   0.000244  -0.000042  -0.000067
   28  C  6  X    0.002620  -0.000332  -0.000116  -0.000019   0.000011
   29  C  6  Y   -0.002286   0.000270  -0.000102   0.000008  -0.000057
   30  C  6  Z   -0.002105   0.000122   0.000041  -0.000075  -0.000029
   31  H  7  S   -0.000000   0.000006   0.000088   0.000103  -0.006758
   32  H  8  S   -0.000063  -0.000008  -0.000147   0.000198  -0.006696
   33  H  9  S   -0.000197   0.000017   0.000049  -0.006784  -0.000063
   34  H 10  S   -0.000209   0.000002   0.000168  -0.006646   0.000033
   35  H 11  S    0.000053  -0.000028  -0.006659   0.000080  -0.000176
   36  H 12  S   -0.000042   0.000022  -0.006759  -0.000040  -0.000013
   37  H 13  S    0.000077  -0.000172  -0.000089  -0.000012   0.000067
   38  H 14  S   -0.000019  -0.006722  -0.000140  -0.000011  -0.000008
   39  H 15  S   -0.000018  -0.006690  -0.000021   0.000013  -0.000009
   40  H 16  S   -0.000103  -0.006758  -0.000007  -0.000000   0.000003
   41  B 17  S    0.000007  -0.000009  -0.000007   0.000004   0.000014
   42  B 17  S    0.000112   0.000044   0.000033  -0.000032  -0.000007
   43  B 17  X    0.000033   0.000004  -0.000031   0.000001   0.000059
   44  B 17  Y    0.000063  -0.000043  -0.000018  -0.000021  -0.000069
   45  B 17  Z    0.000115  -0.000028  -0.000005   0.000037  -0.000067
   46  H 18  S   -0.000019   0.000010   0.000003   0.000013  -0.000022
   47  H 19  S   -0.001802  -0.000041   0.000044  -0.000024   0.000015
   48  H 20  S   -0.000057   0.000005  -0.000001  -0.000005   0.000159

                      6          7          8          9         10
                  -10.9961    -7.3822    -1.1349    -0.9979    -0.9349
                     A          A          A          A          A   
    1  C  1  S    0.003154   0.000027  -0.082720   0.085788   0.107310
    2  C  1  S   -0.005634   0.000213   0.210668  -0.236217  -0.309672
    3  C  1  X   -0.003763  -0.000199   0.014212   0.037958  -0.073552
    4  C  1  Y    0.001493  -0.000040  -0.053559   0.039585  -0.007930
    5  C  1  Z    0.001215   0.000018  -0.017869   0.008911   0.011356
    6  C  2  S    0.000730   0.000004  -0.093008   0.111606  -0.053680
    7  C  2  S    0.000153  -0.000051   0.237147  -0.310325   0.154092
    8  C  2  X   -0.000239  -0.000031   0.061760  -0.034258  -0.006686
    9  C  2  Y    0.000079  -0.000052  -0.011805  -0.014121  -0.114932
   10  C  2  Z    0.000129   0.000034   0.011756  -0.013910   0.001008
   11  C  3  S    0.000459  -0.000008  -0.112251   0.036603  -0.145650
   12  C  3  S    0.000222   0.000038   0.291335  -0.098700   0.424144
   13  C  3  X    0.000016   0.000026   0.034699   0.071719  -0.019165
   14  C  3  Y   -0.000135  -0.000013   0.062204  -0.048529  -0.005738
   15  C  3  Z   -0.000130   0.000039  -0.026941  -0.008442  -0.014145
   16  C  4  S    0.991954   0.000533  -0.103655  -0.021800   0.138006
   17  C  4  S    0.037080  -0.003015   0.252877   0.060362  -0.380471
   18  C  4  X   -0.000853  -0.001550  -0.045067   0.052738   0.037454
   19  C  4  Y   -0.002573  -0.000413  -0.069711  -0.066471   0.005434
   20  C  4  Z   -0.001029  -0.002468  -0.004007  -0.025494   0.003533
   21  C  5  S   -0.001590   0.000029  -0.139057  -0.103152   0.005276
   22  C  5  S   -0.008166   0.000071   0.361553   0.292227  -0.012818
   23  C  5  X   -0.000505   0.000003  -0.047751   0.098538  -0.083010
   24  C  5  Y   -0.004919  -0.000059   0.048325  -0.035950  -0.176356
   25  C  5  Z   -0.000429   0.000101   0.011030  -0.065122   0.006198
   26  C  6  S    0.000165  -0.000013  -0.053449  -0.154974  -0.029358
   27  C  6  S    0.000286   0.000084   0.143743   0.434749   0.084818
   28  C  6  X   -0.000087   0.000028  -0.031612  -0.035097  -0.014736
   29  C  6  Y    0.000030  -0.000019   0.026121   0.034116  -0.020752
   30  C  6  Z    0.000042   0.000056   0.022710   0.024629   0.001760
   31  H  7  S    0.000002  -0.000742   0.036934  -0.055047  -0.077124
   32  H  8  S    0.000017  -0.000026   0.032765  -0.053580  -0.083877
   33  H  9  S   -0.000098  -0.000008   0.046327  -0.070797   0.040519
   34  H 10  S   -0.000146   0.000003   0.036833  -0.071915   0.045381
   35  H 11  S   -0.000107   0.000001   0.048127  -0.016396   0.129521
   36  H 12  S   -0.000014  -0.000048   0.052416  -0.026840   0.107323
   37  H 13  S   -0.006594  -0.000588   0.042252   0.023921  -0.105646
   38  H 14  S   -0.000084  -0.000001   0.025290   0.101741   0.037921
   39  H 15  S   -0.000015  -0.000126   0.024258   0.101399   0.016289
   40  H 16  S   -0.000062   0.000021   0.026776   0.107492   0.017456
   41  B 17  S    0.000410   0.991083  -0.007637  -0.003347   0.017310
   42  B 17  S   -0.002697   0.035273   0.015635   0.007757  -0.037928
   43  B 17  X    0.001586   0.000251  -0.005282  -0.000544   0.011120
   44  B 17  Y    0.000447   0.001813  -0.001177  -0.003239  -0.003183
   45  B 17  Z    0.002120  -0.000055  -0.006733  -0.003951   0.014540
   46  H 18  S    0.000278  -0.006389   0.002487   0.002441  -0.010392
   47  H 19  S    0.000018  -0.002537   0.007819   0.010918  -0.002994
   48  H 20  S    0.000155  -0.006342   0.002941  -0.000302  -0.011297

                     11         12         13         14         15
                   -0.8841    -0.7643    -0.6874    -0.6385    -0.6290
                     A          A          A          A          A   
    1  C  1  S   -0.091383   0.113167  -0.026913   0.019227   0.006856
    2  C  1  S    0.269099  -0.355386   0.083265  -0.064470  -0.023918
    3  C  1  X   -0.091327  -0.041416  -0.107072   0.002088   0.148651
    4  C  1  Y    0.001645  -0.104509  -0.032585  -0.203115  -0.109969
    5  C  1  Z   -0.002594  -0.082644  -0.014163   0.150152  -0.159091
    6  C  2  S   -0.097855  -0.120048   0.000515  -0.011219   0.016142
    7  C  2  S    0.292050   0.380611  -0.001754   0.037110  -0.054087
    8  C  2  X   -0.025024  -0.105595   0.080815   0.063761   0.232926
    9  C  2  Y    0.082976  -0.037312   0.122918  -0.013900  -0.071278
   10  C  2  Z   -0.000507  -0.095581  -0.049044   0.217355  -0.129904
   11  C  3  S    0.066307   0.071528   0.056198   0.009626  -0.015856
   12  C  3  S   -0.195970  -0.227287  -0.188580  -0.033236   0.048683
   13  C  3  X   -0.086246  -0.089567   0.215920   0.003319  -0.029958
   14  C  3  Y    0.019175   0.111967   0.127245   0.235241   0.092870
   15  C  3  Z   -0.005591  -0.073461  -0.115578   0.234144  -0.117210
   16  C  4  S    0.071215  -0.039280   0.091540   0.009441  -0.034210
   17  C  4  S   -0.195400   0.110102  -0.301816  -0.042770   0.106900
   18  C  4  X   -0.028595   0.095412  -0.146419  -0.060760  -0.173413
   19  C  4  Y    0.095295  -0.110024  -0.167467  -0.143903   0.061593
   20  C  4  Z    0.012312  -0.082619   0.028414   0.126141  -0.049487
   21  C  5  S    0.074961  -0.025391  -0.107981   0.016973   0.064632
   22  C  5  S   -0.226017   0.078120   0.366085  -0.069012  -0.230295
   23  C  5  X    0.108938   0.091584  -0.096948  -0.016793  -0.220071
   24  C  5  Y   -0.122404   0.162412  -0.085337   0.169863   0.122863
   25  C  5  Z   -0.089599  -0.053165  -0.011274   0.148717   0.010409
   26  C  6  S   -0.136981   0.015660   0.024989  -0.021843  -0.024046
   27  C  6  S    0.405001  -0.050021  -0.080721   0.077254   0.083684
   28  C  6  X    0.032861   0.005884  -0.139850   0.186130   0.099218
   29  C  6  Y   -0.032591   0.067452   0.042943  -0.040153  -0.146073
   30  C  6  Z   -0.035558   0.003701   0.083785  -0.044995  -0.226924
   31  H  7  S    0.078695  -0.175373   0.017249   0.066200  -0.150990
   32  H  8  S    0.092492  -0.145828   0.033608  -0.203204  -0.051672
   33  H  9  S    0.087202   0.194314   0.029187  -0.162521   0.057230
   34  H 10  S    0.099472   0.164583  -0.060937   0.039353  -0.220516
   35  H 11  S   -0.050450  -0.105079  -0.164096  -0.234785   0.007010
   36  H 12  S   -0.060581  -0.128081  -0.151538   0.144702  -0.081098
   37  H 13  S   -0.050776   0.072996  -0.260063  -0.143257   0.004954
   38  H 14  S    0.130047  -0.061303  -0.035810   0.008035   0.126340
   39  H 15  S    0.123439  -0.011262  -0.093830   0.138238   0.023752
   40  H 16  S    0.131679  -0.001013  -0.084793   0.059058   0.162604
   41  B 17  S    0.009765   0.000663   0.061624  -0.016961   0.075203
   42  B 17  S   -0.022746  -0.001940  -0.150905   0.044784  -0.191332
   43  B 17  X    0.005232   0.008877  -0.000264  -0.012791  -0.009834
   44  B 17  Y    0.002593  -0.004247  -0.027255  -0.007240  -0.013171
   45  B 17  Z    0.009842  -0.010515   0.025892   0.009451  -0.005911
   46  H 18  S   -0.006268   0.004943  -0.081527   0.009935  -0.103093
   47  H 19  S   -0.011051  -0.004007  -0.007497   0.029668  -0.074597
   48  H 20  S   -0.003675  -0.011847  -0.065249   0.029203  -0.104510

                     16         17         18         19         20
                   -0.5996    -0.5627    -0.5524    -0.5310    -0.5014
                     A          A          A          A          A   
    1  C  1  S    0.013133   0.004345   0.014894   0.009053  -0.006855
    2  C  1  S   -0.045179  -0.014364  -0.049495  -0.031579   0.028006
    3  C  1  X    0.066115   0.020612   0.063562  -0.137282  -0.058044
    4  C  1  Y   -0.056904   0.020540  -0.079834   0.067676  -0.137370
    5  C  1  Z   -0.005333  -0.142920   0.097743  -0.328120   0.014636
    6  C  2  S   -0.010241  -0.003718  -0.013570  -0.002588  -0.022057
    7  C  2  S    0.035145   0.012751   0.046698   0.009289   0.086049
    8  C  2  X    0.067898  -0.026820  -0.142179   0.017439   0.333208
    9  C  2  Y   -0.014317   0.054903   0.001012   0.175617  -0.089389
   10  C  2  Z   -0.136678  -0.088552   0.156610  -0.020600   0.146986
   11  C  3  S    0.014055   0.002926   0.020854  -0.005970  -0.015688
   12  C  3  S   -0.051723  -0.011715  -0.074317   0.019788   0.064298
   13  C  3  X    0.092384   0.063103   0.048501   0.184834  -0.084599
   14  C  3  Y    0.073076  -0.031332   0.039494   0.078849   0.279461
   15  C  3  Z   -0.147982   0.079735   0.036265   0.340945  -0.047782
[...]
 19   H            X  0.01745953 -0.00371311 -0.00245000  0.00089922  0.00880456
                   Y  0.01174254 -0.00377187 -0.00045098  0.00019488 -0.00040255
                   Z  0.02593208 -0.00516953 -0.00438873  0.00139061 -0.00534372
 20   H            X -0.00885059  0.00327123 -0.00200183 -0.41717399  0.39485768
                   Y  0.00874537 -0.00210739  0.00068858  0.17851895 -0.16961235
                   Z -0.00850758  0.00117292  0.00078604  0.52369540 -0.49377869

 TRANS. SAYVETZ    X -0.00000030  0.00000014 -0.00000096 -0.00000022 -0.00000001
                   Y -0.00000043  0.00000007 -0.00000026  0.00000011 -0.00000001
                   Z -0.00000064  0.00000044 -0.00000007 -0.00000012 -0.00000003
               TOTAL  0.00000083  0.00000047  0.00000099  0.00000027  0.00000004

   ROT. SAYVETZ    X -0.00489971 -0.00429247  0.00608109 -0.00462277  0.01465982
                   Y  0.00454348  0.00092756 -0.00270374  0.00018306 -0.01949662
                   Z  0.00453716  0.00200103 -0.00326513  0.00277522  0.02406020
               TOTAL  0.00807690  0.00482595  0.00741289  0.00539494  0.03426254

                           51          52          53          54          55
       FREQUENCY:      3565.89     3608.68     3619.95     3629.32     3720.15  
        SYMMETRY:         A           A           A           A           A   
    REDUCED MASS:      1.03937     1.06619     1.06701     1.06902     1.11100
    IR INTENSITY:      0.01009     0.06466     0.06054     0.01808     0.00700

  1   C            X -0.00005209  0.02083894 -0.00232334  0.00117846 -0.01388990
                   Y  0.00009001 -0.06456797  0.01565421 -0.00648411  0.01073174
                   Z  0.00000556 -0.01125831  0.00438994 -0.00219412 -0.08914547
  2   C            X -0.00006118 -0.01525181 -0.06259316  0.02330894 -0.00454917
                   Y  0.00000208  0.00131920 -0.00651121  0.00000188  0.00091096
                   Z  0.00001044 -0.00281640 -0.01645100  0.00802105  0.01247743
  3   C            X -0.00013215  0.00059454  0.00732442  0.01378036 -0.00002430
                   Y -0.00008280 -0.00058719  0.02172909  0.06364781 -0.00070806
                   Z  0.00010273  0.00037914 -0.00430916 -0.01744794  0.00059392
  4   C            X  0.00014077  0.00012220 -0.00025439  0.00004401 -0.00189599
                   Y  0.00030830  0.00241490 -0.00051530  0.00039602 -0.00215331
                   Z  0.00000737 -0.00070567  0.00047156 -0.00023130  0.00263915
  5   C            X -0.00188507 -0.00042459 -0.00033651 -0.00205492  0.00013489
                   Y  0.00170702  0.00017250 -0.00075255 -0.00107662  0.00022221
                   Z  0.00141726  0.00000240  0.00031759  0.00081871 -0.00021574
  6   C            X  0.02381095  0.00008269 -0.00006073 -0.00009664  0.00025358
                   Y -0.02424082  0.00000218 -0.00000641 -0.00021115  0.00002808
                   Z -0.03996906 -0.00005069  0.00001135 -0.00019566  0.00012165
  7   H            X  0.00027405 -0.03729206  0.01076323 -0.00449738 -0.03935925
                   Y -0.00072476  0.31685779 -0.07367087  0.03137828  0.30668341
                   Z -0.00133018  0.59814961 -0.14253149  0.06029800  0.56242053
  8   H            X -0.00000574 -0.19394360  0.03744438 -0.01410024  0.20343126
                   Y -0.00027059  0.40483723 -0.07987132  0.02879819 -0.42927237
                   Z  0.00048995 -0.46984904  0.09459628 -0.03455450  0.48534772
  9   H            X  0.00018733  0.06585044  0.27401701 -0.10159146 -0.02682484
                   Y  0.00007788  0.02174487  0.07855615 -0.03237738 -0.00578527
                   Z  0.00044553  0.14108748  0.59625909 -0.22312833 -0.06296220
 10   H            X  0.00067760  0.11556806  0.42177668 -0.14117378  0.07958187
                   Y -0.00005496 -0.00647339 -0.02130584  0.00805997 -0.00527960
                   Z -0.00067101 -0.10999114 -0.40738139  0.13796008 -0.07517905
 11   H            X  0.00043458  0.00057615 -0.05848412 -0.15261541  0.00084917
                   Y  0.00182311  0.00478217 -0.21007301 -0.55534553  0.00181315
                   Z  0.00116948  0.00339478 -0.14288936 -0.38250666  0.00142374
 12   H            X  0.00033298  0.00049194  0.00050410 -0.00481393 -0.00015351
                   Y  0.00041978  0.00092075 -0.05131185 -0.14569724  0.00259372
                   Z -0.00129898 -0.00558569  0.19421972  0.56901863 -0.00892103
 13   H            X -0.00284501 -0.01908064  0.00815186 -0.00629700  0.02502633
                   Y -0.00251385 -0.01525075  0.00572332 -0.00597858  0.02161119
                   Z  0.00280704  0.01504760 -0.00685190  0.00598953 -0.02379114
 14   H            X -0.02715785 -0.00004248 -0.00000241  0.00005992  0.00001096
                   Y  0.48404500  0.00074949  0.00009312  0.00192274  0.00063674
                   Z -0.15951525 -0.00001241  0.00001343 -0.00069711 -0.00026370
 15   H            X -0.47903036 -0.00049556  0.00010710 -0.00053941 -0.00276805
                   Y -0.20266123 -0.00035991  0.00000218 -0.00045861 -0.00113979
                   Z  0.00722443 -0.00004918 -0.00007330 -0.00015890  0.00012590
 16   H            X  0.24719402  0.00019293 -0.00008668  0.00088065 -0.00064453
                   Y -0.01611919 -0.00002979 -0.00001365 -0.00014479  0.00001005
                   Z  0.60571112  0.00044064 -0.00042646  0.00176731 -0.00169954
 17   B            X -0.00010048 -0.00020841  0.00002151 -0.00034494  0.00007314
                   Y  0.00010579  0.00010431 -0.00002892  0.00012641  0.00000872
                   Z  0.00009183 -0.00020851  0.00007830  0.00000228 -0.00023613
 18   H            X  0.00057320 -0.00041765 -0.00008784  0.00058481 -0.00099630
                   Y  0.00012289 -0.00021449 -0.00004998 -0.00033982 -0.00009504
                   Z -0.00027156  0.00026663 -0.00011150  0.00008640  0.00044493
 19   H            X  0.00063105  0.00041184 -0.00108306 -0.00381103 -0.00002223
                   Y -0.00056487  0.00040855 -0.00012383 -0.00084627  0.00019313
                   Z  0.00167064  0.00078626  0.00003795  0.00012995  0.00020797
 20   H            X  0.00001046 -0.00053090  0.00024270  0.00112877 -0.00113972
                   Y -0.00021039  0.00013814 -0.00005496 -0.00039469  0.00039744
                   Z  0.00009345  0.00064030 -0.00033064 -0.00052461  0.00092308

 TRANS. SAYVETZ    X  0.00000032 -0.00000002  0.00000011 -0.00000027  0.00000002
                   Y -0.00000017 -0.00000019  0.00000002  0.00000005  0.00000001
                   Z -0.00000045 -0.00000020 -0.00000033 -0.00000019 -0.00000023
               TOTAL  0.00000057  0.00000028  0.00000035  0.00000033  0.00000023

   ROT. SAYVETZ    X -0.00028889 -0.00035844  0.00024033  0.00036795 -0.00025188
                   Y -0.00005752 -0.00038050 -0.00048397 -0.00003337  0.00042562
                   Z  0.00010783  0.00000962 -0.00015374 -0.00082925  0.00021828
               TOTAL  0.00031367  0.00052283  0.00056180  0.00090784  0.00054059

                           56          57          58          59          60
       FREQUENCY:      3737.29     3739.22     3739.68     3747.28     3768.90  
        SYMMETRY:         A           A           A           A           A   
    REDUCED MASS:      1.09735     1.11156     1.10750     1.10959     1.11043
    IR INTENSITY:      0.46343     0.07384     0.03244     0.00308     0.00899

  1   C            X  0.00460213 -0.00049325 -0.00036947 -0.00094348  0.00003531
                   Y -0.00296718 -0.00084107  0.00051728  0.00055343  0.00004955
                   Z  0.00504063 -0.00958658  0.00197590 -0.00498677 -0.00016593
  2   C            X -0.00397591  0.01940413 -0.00523637  0.00705779  0.00001936
                   Y  0.00214204 -0.00733960  0.00192690 -0.00318177  0.00001681
                   Z  0.02016191 -0.07681826  0.02040993 -0.03271336 -0.00011315
  3   C            X -0.00129382  0.00370782 -0.00032663 -0.00941153 -0.00010263
                   Y -0.00281369  0.01037936 -0.00162412 -0.02300299 -0.00074142
                   Z -0.01156323  0.03138849 -0.00377382 -0.08087272 -0.00221115
  4   C            X -0.05163171 -0.01251682  0.00902842  0.00206952 -0.00083610
                   Y -0.04236085 -0.01025522  0.00722475  0.00162274 -0.00034644
                   Z  0.04728980  0.01145649 -0.00807732 -0.00179225  0.00063590
  5   C            X  0.00026020 -0.00007816  0.00033574 -0.00033159  0.00005089
                   Y  0.00333804  0.00077062 -0.00109720 -0.00010210  0.00057479
                   Z -0.00000851 -0.00043023 -0.00072529  0.00030476  0.00024964
  6   C            X -0.00579061 -0.01688682 -0.06122306 -0.00185452 -0.04261085
                   Y  0.00234310  0.00375895  0.01523925  0.00230464 -0.07749776
                   Z -0.00696553 -0.01631362 -0.05947582 -0.00319368  0.02402859
  7   H            X  0.00204392 -0.00371841  0.00083934 -0.00187866  0.00006238
                   Y -0.01531674  0.04315142 -0.00998328  0.02009482  0.00042258
                   Z -0.02472030  0.07421617 -0.01717197  0.03413036  0.00079714
  8   H            X -0.02191842  0.01606113 -0.00182514  0.01110427 -0.00000447
                   Y  0.04188809 -0.03759106  0.00547914 -0.02404781 -0.00037379
                   Z -0.04603143  0.04272040 -0.00642097  0.02732436  0.00055300
  9   H            X -0.06103181  0.22356775 -0.05940566  0.10533913  0.00059570
                   Y -0.01862256  0.06610255 -0.01734182  0.02698058  0.00005717
                   Z -0.13045143  0.47889143 -0.12713080  0.21868752  0.00108711
 10   H            X  0.11274238 -0.44461673  0.11865966 -0.18410017 -0.00046415
                   Y -0.00545588  0.02094961 -0.00564476  0.01008683  0.00006356
                   Z -0.10639386  0.42042692 -0.11215206  0.17421156  0.00048424
 11   H            X  0.01744274 -0.05070820  0.00687380  0.12249951  0.00337268
                   Y  0.06107462 -0.18204110  0.02340897  0.44868321  0.01192385
                   Z  0.04159690 -0.12272351  0.01546565  0.30289171  0.00797074
 12   H            X -0.00131664  0.00392818 -0.00056761 -0.00622123  0.00030892
                   Y -0.02359153  0.06242801 -0.00641834 -0.17685155 -0.00400532
                   Z  0.09057354 -0.24076061  0.02686489  0.65051914  0.01562928
 13   H            X  0.57371184  0.13679616 -0.09773438 -0.02260027  0.00661941
                   Y  0.46003222  0.11007452 -0.07850570 -0.01758852  0.00566842
                   Z -0.53712506 -0.12794448  0.09192552  0.01993452 -0.00628541
 14   H            X  0.00235383  0.00401542  0.01501954  0.00160514 -0.03672043
                   Y -0.04511530 -0.09239882 -0.34965809 -0.03056567  0.67527624
                   Z  0.01314426  0.02894254  0.11121559  0.01001794 -0.22151831
 15   H            X  0.03855950  0.12553626  0.45239478  0.00781715  0.56895975
                   Y  0.01672824  0.05378911  0.19455683  0.00396295  0.23964477
                   Z -0.00126736 -0.00348074 -0.01242370 -0.00005058 -0.00878064
 16   H            X  0.02822890  0.06928935  0.25158425  0.01148201 -0.02597533
                   Y -0.00185661 -0.00496367 -0.01811457 -0.00056322 -0.00101693
                   Z  0.06972215  0.17016743  0.61698777  0.02898002 -0.05685005
 17   B            X  0.00000053  0.00005074 -0.00000182 -0.00003622  0.00005884
                   Y  0.00081189  0.00017147  0.00002089  0.00011359 -0.00013908
                   Z -0.00046656 -0.00012731  0.00022160 -0.00010279 -0.00005986
 18   H            X  0.00185105  0.00022457 -0.00029567 -0.00069656 -0.00028477
                   Y -0.00015183 -0.00000110 -0.00020046 -0.00040614  0.00022573
                   Z  0.00003163  0.00009934  0.00003894  0.00061708  0.00001412
 19   H            X -0.00385199  0.00110156  0.00201537 -0.00352884  0.00008661
                   Y  0.00109098  0.00038492 -0.00178110 -0.00119979  0.00152777
                   Z -0.00669894 -0.00151294  0.00192175  0.00134381  0.00081186
 20   H            X -0.00025271 -0.00031373  0.00057347  0.00022205  0.00008151
                   Y  0.00049367  0.00023753 -0.00020024 -0.00018550  0.00017662
                   Z  0.00028253  0.00037482 -0.00017176  0.00007996 -0.00025663

 TRANS. SAYVETZ    X -0.00000020 -0.00000013 -0.00000012  0.00000009 -0.00000001
                   Y  0.00000040  0.00000008 -0.00000004  0.00000002 -0.00000004
                   Z -0.00000024 -0.00000001 -0.00000000 -0.00000016  0.00000010
               TOTAL  0.00000051  0.00000015  0.00000012  0.00000018  0.00000011

   ROT. SAYVETZ    X -0.00218197 -0.00056657  0.00021289 -0.00015418 -0.00018452
                   Y  0.00907835  0.00225310 -0.00159100 -0.00036422  0.00017510
                   Z  0.00355879  0.00130593 -0.00027344 -0.00094895  0.00003052
               TOTAL  0.00999212  0.00266513  0.00162831  0.00102807  0.00025620

 REFERENCE ON SAYVETZ CONDITIONS - A. SAYVETZ, J.CHEM.PHYS., 7, 383-389(1939).

 NOTE - THE MODES J,K ARE ORTHONORMALIZED ACCORDING TO
 SUM ON I   M(I) * (X(I,J)*X(I,K) + Y(I,J)*Y(I,K) + Z(I,J)*Z(I,K)) = DELTA(J,K)

  MODE FREQ(CM**-1)  SYMMETRY  RED. MASS  IR INTENS.
     1    1098.018    A        2.126512    3.684604
     2     539.063    A        1.223293    6.671481
     3       0.009    A        4.805512    0.000000
     4       0.005    A        4.805558    0.000000
     5       0.002    A        4.805551    0.000000
     6      40.354    A        2.960902    0.009603
     7      71.614    A        2.284146    0.000606
     8     116.873    A        2.227770    0.018440
     9     128.464    A        2.737734    0.051642
    10     241.064    A        1.210365    0.017013
    11     267.741    A        1.783838    0.016340
    12     328.201    A        2.623614    0.006305
    13     358.911    A        2.440827    0.075773
    14     428.531    A        3.106131    0.015216
    15     504.148    A        2.573698    0.263909
    16     677.799    A        2.611845    1.139015
    17     718.855    A        1.240186    0.004682
    18     750.349    A        1.813572    0.083783
    19     785.721    A        1.510452    0.373633
    20     902.749    A        1.290936    0.510683
    21     942.694    A        1.784671    0.037985
    22     987.517    A        2.064749    0.012003
    23    1038.742    A        1.397655    0.916178
    24    1049.538    A        1.391060    0.786512
    25    1092.638    A        2.087139    0.068118
    26    1126.497    A        1.793404    0.268660
    27    1186.656    A        1.395006    0.846371
    28    1218.549    A        1.300659    1.719846
    29    1251.638    A        1.469896    2.366518
    30    1266.297    A        1.244838    2.320906
    31    1301.587    A        1.136521    0.590536
    32    1308.724    A        1.427285    1.455764
    33    1322.598    A        1.221077    1.478103
    34    1360.256    A        1.340986    0.131414
    35    1404.751    A        1.496766    0.164351
    36    1475.298    A        1.237374    0.001369
    37    1488.406    A        1.250708    0.020515
    38    1509.366    A        1.556984    0.090298
    39    1603.395    A        1.997988    0.027721
    40    1616.419    A        1.825718    0.300446
    41    1633.989    A        1.600665    0.038242
    42    1710.868    A        1.307904    0.106279
    43    1755.161    A        3.174093    0.405839
    44    1806.616    A        1.102780    0.005206
    45    1808.947    A        1.048941    0.046333
    46    1812.118    A        1.088221    0.021414
    47    1822.098    A        1.101195    0.012226
    48    1838.662    A        1.119384    0.005259
    49    3183.083    A        1.036933    0.037853
    50    3404.481    A        1.151592    0.173382
    51    3565.888    A        1.039367    0.010090
    52    3608.678    A        1.066187    0.064660
    53    3619.948    A        1.067013    0.060537
    54    3629.322    A        1.069020    0.018082
    55    3720.153    A        1.111001    0.007000
    56    3737.287    A        1.097348    0.463433
    57    3739.222    A        1.111564    0.073839
    58    3739.680    A        1.107501    0.032442
    59    3747.278    A        1.109590    0.003084
    60    3768.899    A        1.110430    0.008993

     -------------------------------
     THERMOCHEMISTRY AT T=  298.15 K
     -------------------------------

 USING IDEAL GAS, RIGID ROTOR, HARMONIC NORMAL MODE APPROXIMATIONS.
 P=  1.01325E+05 PASCAL.
 ALL FREQUENCIES ARE SCALED BY   1.00000
 THE MOMENTS OF INERTIA ARE (IN AMU*BOHR**2)
            525.36984           768.37161           955.20648
 THE ROTATIONAL SYMMETRY NUMBER IS  1.0
 THE ROTATIONAL CONSTANTS ARE (IN GHZ)
      3.43204     2.34664     1.88764
   2 IMAGINARY FREQUENCY VIBRATION(S) IS(ARE) EXCLUDED
     FROM THE FOLLOWING THERMOCHEMICAL ANALYSIS.
      9 -     60 VIBRATIONAL MODES ARE USED IN THERMOCHEMISTRY.
 THE HARMONIC ZERO POINT ENERGY IS (SCALED BY   1.000)
        0.203432 HARTREE/MOLECULE    44648.236534 CM**-1/MOLECULE 
      127.655842 KCAL/MOL              534.112044 KJ/MOL

               Q               LN Q
 ELEC.     1.00000E+00       0.000000
 TRANS.    3.70351E+07      17.427377
 ROT.      2.22284E+05      12.311711
 VIB.      1.01515E+01       2.317617
 TOT.      8.35700E+13      32.056705

              E         H         G         CV        CP        S
           KJ/MOL    KJ/MOL    KJ/MOL   J/MOL-K   J/MOL-K   J/MOL-K
 ELEC.      0.000     0.000     0.000     0.000     0.000     0.000
 TRANS.     3.718     6.197   -43.201    12.472    20.786   165.684
 ROT.       3.718     3.718   -30.520    12.472    12.472   114.836
 VIB.     543.770   543.770   528.367    78.819    78.819    51.661
 TOTAL    551.206   553.685   454.645   103.762   112.077   332.182
 VIB. THERMAL CORRECTION E(T)-E(0) = H(T)-H(0) =      9657.596 J/MOL

              E         H         G         CV        CP        S
         KCAL/MOL  KCAL/MOL  KCAL/MOL CAL/MOL-K CAL/MOL-K CAL/MOL-K
 ELEC.      0.000     0.000     0.000     0.000     0.000     0.000
 TRANS.     0.889     1.481   -10.325     2.981     4.968    39.600
 ROT.       0.889     0.889    -7.294     2.981     2.981    27.447
 VIB.     129.964   129.964   126.283    18.838    18.838    12.347
 TOTAL    131.742   132.334   108.663    24.800    26.787    79.393
 VIB. THERMAL CORRECTION E(T)-E(0) = H(T)-H(0) =      2308.221 CAL/MOL

     *******************************************************
     * THIS IS NOT A STATIONARY POINT ON THE MOLECULAR PES *
     *     THE VIBRATIONAL ANALYSIS IS NOT VALID !!!       *
     *******************************************************
 ......END OF NORMAL COORDINATE ANALYSIS......
 STEP CPU TIME =     0.01 TOTAL CPU TIME =        152.2 (      2.5 MIN)
 TOTAL WALL CLOCK TIME=        153.0 SECONDS, CPU UTILIZATION IS    99.43%
               580000  WORDS OF DYNAMIC MEMORY USED
 EXECUTION OF GAMESS TERMINATED NORMALLY Sat Nov 13 21:18:54 2021
 DDI: 263640 bytes (0.3 MB / 0 MWords) used by master data server.

 ----------------------------------------
 CPU timing information for all processes
 ========================================
 0: 149.580 + 2.606 = 152.186
 ----------------------------------------
 ddikick.x: exited gracefully.
----- accounting info -----
Files used on the master node chemcompute-node-0.novalocal were:
-rw-r--r--. 1 chemcomp chemcomp     1370 Nov 13 21:16 /scratch/306183/342085.F05
-rw-rw-r--. 1 chemcomp chemcomp  8100720 Nov 13 21:18 /scratch/306183/342085.F08
-rw-rw-r--. 1 chemcomp chemcomp 85196800 Nov 13 21:18 /scratch/306183/342085.F10
-rw-rw-r--. 1 chemcomp chemcomp   564960 Nov 13 21:18 /scratch/306183/342085.F18
Sat Nov 13 21:18:57 UTC 2021
0.155u 0.103s 2:36.62 0.1%	0+0k 8+224io 0pf+0w
Finishing Up...
Looking for IR data...
Looking for Raman data...
vibramans not found
Looking for thermodynamics data...
Looking for UV-Vis data...
306183
